    3    3    1    1
  0.5928599E+02  0.3183060E-09  0.3183060E-09  0.2026997E-08  0.5000000E-15
  1.000000000000000E-004
  CAR 
 MoS2                                    
     18    150     16
 
  0.5000000E+00  0.0000000E+00  0.0000000E+00  0.6666667E-02
    1      -14.852594   1.000000
    2      -14.612721   1.000000
    3       -8.340027   1.000000
    4       -7.376447   1.000000
    5       -6.660519   1.000000
    6       -5.741507   1.000000
    7       -4.460311   1.000000
    8       -3.542031   1.000000
    9       -3.235282   1.000000
   10       -0.400165   0.000000
   11        0.112476   0.000000
   12        1.320047   0.000000
   13        1.677243   0.000000
   14        3.587624   0.000000
   15        5.369492   0.000000
   16        5.685158   0.000000
 
  0.4965986E+00  0.6802721E-02  0.0000000E+00  0.6666667E-02
    1      -14.852376   1.000000
    2      -14.612570   1.000000
    3       -8.339348   1.000000
    4       -7.376958   1.000000
    5       -6.660279   1.000000
    6       -5.741674   1.000000
    7       -4.460158   1.000000
    8       -3.547920   1.000000
    9       -3.231778   1.000000
   10       -0.399860   0.000000
   11        0.112698   0.000000
   12        1.320942   0.000000
   13        1.675101   0.000000
   14        3.588471   0.000000
   15        5.373172   0.000000
   16        5.687454   0.000000
 
  0.4931973E+00  0.1360544E-01  0.0000000E+00  0.6666667E-02
    1      -14.851724   1.000000
    2      -14.612117   1.000000
    3       -8.337313   1.000000
    4       -7.378493   1.000000
    5       -6.659561   1.000000
    6       -5.742176   1.000000
    7       -4.459714   1.000000
    8       -3.564832   1.000000
    9       -3.222015   1.000000
   10       -0.398961   0.000000
   11        0.113373   0.000000
   12        1.323613   0.000000
   13        1.668713   0.000000
   14        3.591005   0.000000
   15        5.384173   0.000000
   16        5.694130   0.000000
 
  0.4897959E+00  0.2040816E-01  0.0000000E+00  0.6666667E-02
    1      -14.850636   1.000000
    2      -14.611364   1.000000
    3       -8.333921   1.000000
    4       -7.381049   1.000000
    5       -6.658367   1.000000
    6       -5.742990   1.000000
    7       -4.458993   1.000000
    8       -3.590986   1.000000
    9       -3.207719   1.000000
   10       -0.397509   0.000000
   11        0.114530   0.000000
   12        1.328017   0.000000
   13        1.658211   0.000000
   14        3.595206   0.000000
   15        5.402397   0.000000
   16        5.705308   0.000000
 
  0.4863946E+00  0.2721088E-01  0.0000000E+00  0.6666667E-02
    1      -14.849120   1.000000
    2      -14.610312   1.000000
    3       -8.329183   1.000000
    4       -7.384625   1.000000
    5       -6.656701   1.000000
    6       -5.744079   1.000000
    7       -4.458021   1.000000
    8       -3.624507   1.000000
    9       -3.190704   1.000000
   10       -0.395596   0.000000
   11        0.116217   0.000000
   12        1.334075   0.000000
   13        1.643811   0.000000
   14        3.601044   0.000000
   15        5.427689   0.000000
   16        5.720920   0.000000
 
  0.4829932E+00  0.3401361E-01  0.0000000E+00  0.6666667E-02
    1      -14.847177   1.000000
    2      -14.608968   1.000000
    3       -8.323100   1.000000
    4       -7.389223   1.000000
    5       -6.654579   1.000000
    6       -5.745413   1.000000
    7       -4.456835   1.000000
    8       -3.663844   1.000000
    9       -3.172388   1.000000
   10       -0.393328   0.000000
   11        0.118501   0.000000
   12        1.341655   0.000000
   13        1.625829   0.000000
   14        3.608477   0.000000
   15        5.459827   0.000000
   16        5.740841   0.000000
 
  0.4795918E+00  0.4081633E-01  0.0000000E+00  0.6666667E-02
    1      -14.844812   1.000000
    2      -14.607329   1.000000
    3       -8.315677   1.000000
    4       -7.394825   1.000000
    5       -6.651994   1.000000
    6       -5.746928   1.000000
    7       -4.455478   1.000000
    8       -3.707919   1.000000
    9       -3.153716   1.000000
   10       -0.390827   0.000000
   11        0.121464   0.000000
   12        1.350537   0.000000
   13        1.604717   0.000000
   14        3.617458   0.000000
   15        5.498567   0.000000
   16        5.765059   0.000000
 
  0.4761905E+00  0.4761905E-01  0.0000000E+00  0.6666667E-02
    1      -14.842031   1.000000
    2      -14.605406   1.000000
    3       -8.306916   1.000000
    4       -7.401431   1.000000
    5       -6.648965   1.000000
    6       -5.748568   1.000000
    7       -4.454012   1.000000
    8       -3.755973   1.000000
    9       -3.135298   1.000000
   10       -0.388255   0.000000
   11        0.125208   0.000000
   12        1.360336   0.000000
   13        1.581103   0.000000
   14        3.627925   0.000000
   15        5.543608   0.000000
   16        5.793439   0.000000
 
  0.4727891E+00  0.5442177E-01  0.0000000E+00  0.6666667E-02
    1      -14.838843   1.000000
    2      -14.603200   1.000000
    3       -8.296827   1.000000
    4       -7.409027   1.000000
    5       -6.645501   1.000000
    6       -5.750258   1.000000
    7       -4.452481   1.000000
    8       -3.807474   1.000000
    9       -3.117472   1.000000
   10       -0.385791   0.000000
   11        0.129849   0.000000
   12        1.370324   0.000000
   13        1.555989   0.000000
   14        3.639816   0.000000
   15        5.594708   0.000000
   16        5.826007   0.000000
 
  0.4693878E+00  0.6122449E-01  0.0000000E+00  0.6666667E-02
    1      -14.835253   1.000000
    2      -14.600722   1.000000
    3       -8.285413   1.000000
    4       -7.417603   1.000000
    5       -6.641615   1.000000
    6       -5.751923   1.000000
    7       -4.450958   1.000000
    8       -3.862025   1.000000
    9       -3.100426   1.000000
   10       -0.383620   0.000000
   11        0.135502   0.000000
   12        1.378990   0.000000
   13        1.531163   0.000000
   14        3.653063   0.000000
   15        5.651225   0.000000
   16        5.862151   0.000000
 
  0.4659864E+00  0.6802721E-01  0.0000000E+00  0.6666667E-02
    1      -14.831277   1.000000
    2      -14.597979   1.000000
    3       -8.272700   1.000000
    4       -7.427152   1.000000
    5       -6.637329   1.000000
    6       -5.753508   1.000000
    7       -4.449518   1.000000
    8       -3.919331   1.000000
    9       -3.084253   1.000000
   10       -0.381972   0.000000
   11        0.142290   0.000000
   12        1.383132   0.000000
   13        1.510085   0.000000
   14        3.667592   0.000000
   15        5.713153   0.000000
   16        5.902171   0.000000
 
  0.4625850E+00  0.7482993E-01  0.0000000E+00  0.6666667E-02
    1      -14.826921   1.000000
    2      -14.594972   1.000000
    3       -8.258688   1.000000
    4       -7.437641   1.000000
    5       -6.632651   1.000000
    6       -5.754901   1.000000
    7       -4.448218   1.000000
    8       -3.979124   1.000000
    9       -3.068952   1.000000
   10       -0.381029   0.000000
   11        0.150339   0.000000
   12        1.377464   0.000000
   13        1.498333   0.000000
   14        3.683339   0.000000
   15        5.780013   0.000000
   16        5.945729   0.000000
 
  0.4591837E+00  0.8163265E-01  0.0000000E+00  0.6666667E-02
    1      -14.822201   1.000000
    2      -14.591721   1.000000
    3       -8.243395   1.000000
    4       -7.449062   1.000000
    5       -6.627608   1.000000
    6       -5.756041   1.000000
    7       -4.447144   1.000000
    8       -4.041198   1.000000
    9       -3.054506   1.000000
   10       -0.380994   0.000000
   11        0.159753   0.000000
   12        1.358727   0.000000
   13        1.499402   0.000000
   14        3.700229   0.000000
   15        5.851520   0.000000
   16        5.992617   0.000000
 
  0.4557823E+00  0.8843537E-01  0.0000000E+00  0.6666667E-02
    1      -14.817127   1.000000
    2      -14.588229   1.000000
    3       -8.226832   1.000000
    4       -7.461377   1.000000
    5       -6.622218   1.000000
    6       -5.756842   1.000000
    7       -4.446354   1.000000
    8       -4.105360   1.000000
    9       -3.040841   1.000000
   10       -0.382040   0.000000
   11        0.170632   0.000000
   12        1.329840   0.000000
   13        1.510625   0.000000
   14        3.718200   0.000000
   15        5.927461   0.000000
   16        6.042415   0.000000
 
  0.4523810E+00  0.9523810E-01  0.0000000E+00  0.6666667E-02
    1      -14.811714   1.000000
    2      -14.584510   1.000000
    3       -8.209008   1.000000
    4       -7.474553   1.000000
    5       -6.616502   1.000000
    6       -5.757244   1.000000
    7       -4.445929   1.000000
    8       -4.171419   1.000000
    9       -3.027882   1.000000
   10       -0.384317   0.000000
   11        0.183048   0.000000
   12        1.295136   0.000000
   13        1.527878   0.000000
   14        3.737187   0.000000
   15        6.006929   0.000000
   16        6.094988   0.000000
 
  0.4489796E+00  0.1020408E+00  0.0000000E+00  0.6666667E-02
    1      -14.805979   1.000000
    2      -14.580574   1.000000
    3       -8.189948   1.000000
    4       -7.488556   1.000000
    5       -6.610486   1.000000
    6       -5.757165   1.000000
    7       -4.445938   1.000000
    8       -4.239208   1.000000
    9       -3.015531   1.000000
   10       -0.387964   0.000000
   11        0.197038   0.000000
   12        1.257251   0.000000
   13        1.548725   0.000000
   14        3.757132   0.000000
   15        6.090464   0.000000
   16        6.149958   0.000000
 
  0.4455782E+00  0.1088435E+00  0.0000000E+00  0.6666667E-02
    1      -14.799937   1.000000
    2      -14.576434   1.000000
    3       -8.169666   1.000000
    4       -7.503339   1.000000
    5       -6.604193   1.000000
    6       -5.756541   1.000000
    7       -4.446443   1.000000
    8       -4.308558   1.000000
    9       -3.003686   1.000000
   10       -0.393068   0.000000
   11        0.212616   0.000000
   12        1.217573   0.000000
   13        1.571952   0.000000
   14        3.777982   0.000000
   15        6.177188   0.000000
   16        6.207188   0.000000
 
  0.4421769E+00  0.1156463E+00  0.0000000E+00  0.6666667E-02
    1      -14.793608   1.000000
    2      -14.572104   1.000000
    3       -8.148181   1.000000
    4       -7.518857   1.000000
    5       -6.597655   1.000000
    6       -5.755328   1.000000
    7       -4.447507   1.000000
    8       -4.379311   1.000000
    9       -2.992241   1.000000
   10       -0.399691   0.000000
   11        0.229763   0.000000
   12        1.176896   0.000000
   13        1.596911   0.000000
   14        3.799688   0.000000
   15        6.265565   0.000000
   16        6.284026   0.000000
 
  0.4387755E+00  0.1224490E+00  0.0000000E+00  0.6666667E-02
    1      -14.787009   1.000000
    2      -14.567597   1.000000
    3       -8.125510   1.000000
    4       -7.535054   1.000000
    5       -6.590900   1.000000
    6       -5.753462   1.000000
    7       -4.451321   1.000000
    8       -4.449170   1.000000
    9       -2.981088   1.000000
   10       -0.407859   0.000000
   11        0.248434   0.000000
   12        1.135744   0.000000
   13        1.623208   0.000000
   14        3.822206   0.000000
   15        6.325520   0.000000
   16        6.388718   0.000000
 
  0.4353741E+00  0.1292517E+00  0.0000000E+00  0.6666667E-02
    1      -14.780160   1.000000
    2      -14.562929   1.000000
    3       -8.101679   1.000000
    4       -7.551876   1.000000
    5       -6.583959   1.000000
    6       -5.750915   1.000000
    7       -4.524379   1.000000
    8       -4.451538   1.000000
    9       -2.970125   1.000000
   10       -0.417582   0.000000
   11        0.268553   0.000000
   12        1.094497   0.000000
   13        1.650560   0.000000
   14        3.845498   0.000000
   15        6.385160   0.000000
   16        6.466317   0.000000
 
  0.4319728E+00  0.1360544E+00  0.0000000E+00  0.6666667E-02
    1      -14.773082   1.000000
    2      -14.558114   1.000000
    3       -8.076708   1.000000
    4       -7.569257   1.000000
    5       -6.576864   1.000000
    6       -5.747643   1.000000
    7       -4.598375   1.000000
    8       -4.454606   1.000000
    9       -2.959249   1.000000
   10       -0.428830   0.000000
   11        0.290032   0.000000
   12        1.053455   0.000000
   13        1.678753   0.000000
   14        3.869529   0.000000
   15        6.444227   0.000000
   16        6.560621   0.000000
 
  0.4285714E+00  0.1428571E+00  0.0000000E+00  0.6666667E-02
    1      -14.765799   1.000000
    2      -14.553172   1.000000
    3       -8.050627   1.000000
    4       -7.587132   1.000000
    5       -6.569652   1.000000
    6       -5.743624   1.000000
    7       -4.673141   1.000000
    8       -4.458430   1.000000
    9       -2.948367   1.000000
   10       -0.441564   0.000000
   11        0.312756   0.000000
   12        1.012858   0.000000
   13        1.707601   0.000000
   14        3.894267   0.000000
   15        6.504712   0.000000
   16        6.569562   0.000000
 
  0.4251701E+00  0.1496599E+00  0.0000000E+00  0.6666667E-02
    1      -14.758330   1.000000
    2      -14.548113   1.000000
    3       -8.023451   1.000000
    4       -7.605422   1.000000
    5       -6.562358   1.000000
    6       -5.738833   1.000000
    7       -4.748513   1.000000
    8       -4.463044   1.000000
    9       -2.937388   1.000000
   10       -0.455718   0.000000
   11        0.336619   0.000000
   12        0.972925   0.000000
   13        1.736942   0.000000
   14        3.919689   0.000000
   15        6.553132   0.000000
   16        6.579770   0.000000
 
  0.4217687E+00  0.1564626E+00  0.0000000E+00  0.6666667E-02
    1      -14.750704   1.000000
    2      -14.542962   1.000000
    3       -7.995214   1.000000
    4       -7.624066   1.000000
    5       -6.555029   1.000000
    6       -5.733268   1.000000
    7       -4.824346   1.000000
    8       -4.468477   1.000000
    9       -2.926232   1.000000
   10       -0.471226   0.000000
   11        0.361488   0.000000
   12        0.933831   0.000000
   13        1.766612   0.000000
   14        3.945768   0.000000
   15        6.593951   0.000000
   16        6.596780   0.000000
 
  0.4183673E+00  0.1632653E+00  0.0000000E+00  0.6666667E-02
    1      -14.742944   1.000000
    2      -14.537736   1.000000
    3       -7.965941   1.000000
    4       -7.642982   1.000000
    5       -6.547702   1.000000
    6       -5.726927   1.000000
    7       -4.900476   1.000000
    8       -4.474745   1.000000
    9       -2.914828   1.000000
   10       -0.488006   0.000000
   11        0.387232   0.000000
   12        0.895730   0.000000
   13        1.796464   0.000000
   14        3.972480   0.000000
   15        6.613386   0.000000
   16        6.622995   0.000000
 
  0.4149660E+00  0.1700680E+00  0.0000000E+00  0.6666667E-02
    1      -14.735078   1.000000
    2      -14.532451   1.000000
    3       -7.935664   1.000000
    4       -7.662081   1.000000
    5       -6.540425   1.000000
    6       -5.719807   1.000000
    7       -4.976738   1.000000
    8       -4.481856   1.000000
    9       -2.903111   1.000000
   10       -0.505968   0.000000
   11        0.413718   0.000000
   12        0.858765   0.000000
   13        1.826355   0.000000
   14        3.999808   0.000000
   15        6.595196   0.000000
   16        6.633703   0.000000
 
  0.4115646E+00  0.1768707E+00  0.0000000E+00  0.6666667E-02
    1      -14.727130   1.000000
    2      -14.527130   1.000000
    3       -7.904419   1.000000
    4       -7.681293   1.000000
    5       -6.533252   1.000000
    6       -5.711923   1.000000
    7       -5.052968   1.000000
    8       -4.489821   1.000000
    9       -2.891037   1.000000
   10       -0.525019   0.000000
   11        0.440810   0.000000
   12        0.823053   0.000000
   13        1.856138   0.000000
   14        4.027728   0.000000
   15        6.537258   0.000000
   16        6.653051   0.000000
 
  0.4081633E+00  0.1836735E+00  0.0000000E+00  0.6666667E-02
    1      -14.719134   1.000000
    2      -14.521792   1.000000
    3       -7.872241   1.000000
    4       -7.700534   1.000000
    5       -6.526245   1.000000
    6       -5.703301   1.000000
    7       -5.129008   1.000000
    8       -4.498629   1.000000
    9       -2.878563   1.000000
   10       -0.545058   0.000000
   11        0.468373   0.000000
   12        0.788696   0.000000
   13        1.885677   0.000000
   14        4.056220   0.000000
   15        6.463444   0.000000
   16        6.671559   0.000000
 
  0.4047619E+00  0.1904762E+00  0.0000000E+00  0.6666667E-02
    1      -14.711116   1.000000
    2      -14.516457   1.000000
    3       -7.839166   1.000000
    4       -7.719713   1.000000
    5       -6.519463   1.000000
    6       -5.693963   1.000000
    7       -5.204676   1.000000
    8       -4.508264   1.000000
    9       -2.865658   1.000000
   10       -0.565974   0.000000
   11        0.496274   0.000000
   12        0.755788   0.000000
   13        1.914838   0.000000
   14        4.085263   0.000000
   15        6.383700   0.000000
   16        6.691512   0.000000
 
  0.4013605E+00  0.1972789E+00  0.0000000E+00  0.6666667E-02
    1      -14.703108   1.000000
    2      -14.511147   1.000000
    3       -7.805236   1.000000
    4       -7.738756   1.000000
    5       -6.512989   1.000000
    6       -5.683947   1.000000
    7       -5.279789   1.000000
    8       -4.518705   1.000000
    9       -2.852311   1.000000
   10       -0.587659   0.000000
   11        0.524379   0.000000
   12        0.724398   0.000000
   13        1.943487   0.000000
   14        4.114834   0.000000
   15        6.300465   0.000000
   16        6.712970   0.000000
 
  0.3979592E+00  0.2040816E+00  0.0000000E+00  0.6666667E-02
    1      -14.695140   1.000000
    2      -14.505884   1.000000
    3       -7.770496   1.000000
    4       -7.757565   1.000000
    5       -6.506902   1.000000
    6       -5.673287   1.000000
    7       -5.354141   1.000000
    8       -4.529908   1.000000
    9       -2.838516   1.000000
   10       -0.609988   0.000000
   11        0.552555   0.000000
   12        0.694598   0.000000
   13        1.971502   0.000000
   14        4.144909   0.000000
   15        6.215629   0.000000
   16        6.733692   0.000000
 
  0.3945578E+00  0.2108844E+00  0.0000000E+00  0.6666667E-02
    1      -14.687243   1.000000
    2      -14.500690   1.000000
    3       -7.776072   1.000000
    4       -7.734991   1.000000
    5       -6.501312   1.000000
    6       -5.662047   1.000000
    7       -5.427519   1.000000
    8       -4.541834   1.000000
    9       -2.824289   1.000000
   10       -0.632844   0.000000
   11        0.580660   0.000000
   12        0.666431   0.000000
   13        1.998750   0.000000
   14        4.175457   0.000000
   15        6.130461   0.000000
   16        6.755229   0.000000
 
  0.3911565E+00  0.2176871E+00  0.0000000E+00  0.6666667E-02
    1      -14.679454   1.000000
    2      -14.495586   1.000000
    3       -7.794181   1.000000
    4       -7.698780   1.000000
    5       -6.496343   1.000000
    6       -5.650269   1.000000
    7       -5.499681   1.000000
    8       -4.554421   1.000000
    9       -2.809657   1.000000
   10       -0.656088   0.000000
   11        0.608566   0.000000
   12        0.639945   0.000000
   13        2.025118   0.000000
   14        4.206448   0.000000
   15        6.045641   0.000000
   16        6.777367   0.000000
 
  0.3877551E+00  0.2244898E+00  0.0000000E+00  0.6666667E-02
    1      -14.671805   1.000000
    2      -14.490597   1.000000
    3       -7.811819   1.000000
    4       -7.661926   1.000000
    5       -6.492150   1.000000
    6       -5.638034   1.000000
    7       -5.570351   1.000000
    8       -4.567600   1.000000
    9       -2.794668   1.000000
   10       -0.679582   0.000000
   11        0.615161   0.000000
   12        0.636129   0.000000
   13        2.050497   0.000000
   14        4.237840   0.000000
   15        5.961680   0.000000
   16        6.799859   0.000000
 
  0.3843537E+00  0.2312925E+00  0.0000000E+00  0.6666667E-02
    1      -14.664337   1.000000
    2      -14.485747   1.000000
    3       -7.828910   1.000000
    4       -7.624504   1.000000
    5       -6.488944   1.000000
    6       -5.639223   1.000000
    7       -5.625420   1.000000
    8       -4.581302   1.000000
    9       -2.779393   1.000000
   10       -0.703186   0.000000
   11        0.592095   0.000000
   12        0.663202   0.000000
   13        2.074766   0.000000
   14        4.269588   0.000000
   15        5.878973   0.000000
   16        6.822523   0.000000
 
  0.3809524E+00  0.2380952E+00  0.0000000E+00  0.6666667E-02
    1      -14.657074   1.000000
    2      -14.481050   1.000000
    3       -7.845363   1.000000
    4       -7.586585   1.000000
    5       -6.486915   1.000000
    6       -5.705900   1.000000
    7       -5.612500   1.000000
    8       -4.595410   1.000000
    9       -2.763893   1.000000
   10       -0.726723   0.000000
   11        0.570768   0.000000
   12        0.689663   0.000000
   13        2.097839   0.000000
   14        4.301640   0.000000
   15        5.797866   0.000000
   16        6.845367   0.000000
 
  0.3775510E+00  0.2448980E+00  0.0000000E+00  0.6666667E-02
    1      -14.650057   1.000000
    2      -14.476537   1.000000
    3       -7.861113   1.000000
    4       -7.548268   1.000000
    5       -6.486377   1.000000
    6       -5.769946   1.000000
    7       -5.599381   1.000000
    8       -4.609829   1.000000
    9       -2.748281   1.000000
   10       -0.750031   0.000000
   11        0.551168   0.000000
   12        0.715353   0.000000
   13        2.119617   0.000000
   14        4.333923   0.000000
   15        5.718663   0.000000
   16        6.868212   0.000000
 
  0.3741497E+00  0.2517007E+00  0.0000000E+00  0.6666667E-02
    1      -14.643322   1.000000
    2      -14.472227   1.000000
    3       -7.876071   1.000000
    4       -7.509669   1.000000
    5       -6.487681   1.000000
    6       -5.830839   1.000000
    7       -5.586161   1.000000
    8       -4.624424   1.000000
    9       -2.732666   1.000000
   10       -0.772928   0.000000
   11        0.533294   0.000000
   12        0.740124   0.000000
   13        2.140019   0.000000
   14        4.366356   0.000000
   15        5.641673   0.000000
   16        6.890941   0.000000
 
  0.3707483E+00  0.2585034E+00  0.0000000E+00  0.6666667E-02
    1      -14.636910   1.000000
    2      -14.468146   1.000000
    3       -7.890180   1.000000
    4       -7.470931   1.000000
    5       -6.491259   1.000000
    6       -5.887975   1.000000
    7       -5.572977   1.000000
    8       -4.639066   1.000000
    9       -2.717199   1.000000
   10       -0.795226   0.000000
   11        0.517119   0.000000
   12        0.763822   0.000000
   13        2.158965   0.000000
   14        4.398827   0.000000
   15        5.567203   0.000000
   16        6.913377   0.000000
 
  0.3673469E+00  0.2653061E+00  0.0000000E+00  0.6666667E-02
    1      -14.630857   1.000000
    2      -14.464313   1.000000
    3       -7.903364   1.000000
    4       -7.432224   1.000000
    5       -6.497574   1.000000
    6       -5.940646   1.000000
    7       -5.559960   1.000000
    8       -4.653573   1.000000
    9       -2.702023   1.000000
   10       -0.816715   0.000000
   11        0.502630   0.000000
   12        0.786291   0.000000
   13        2.176393   0.000000
   14        4.431198   0.000000
   15        5.495588   0.000000
   16        6.935321   0.000000
 
  0.3639456E+00  0.2721088E+00  0.0000000E+00  0.6666667E-02
    1      -14.625197   1.000000
    2      -14.460751   1.000000
    3       -7.915550   1.000000
    4       -7.393770   1.000000
    5       -6.507087   1.000000
    6       -5.988119   1.000000
    7       -5.547261   1.000000
    8       -4.667774   1.000000
    9       -2.687314   1.000000
   10       -0.837187   0.000000
   11        0.489792   0.000000
   12        0.807378   0.000000
   13        2.192246   0.000000
   14        4.463285   0.000000
   15        5.427194   0.000000
   16        6.956585   0.000000
 
  0.3605442E+00  0.2789116E+00  0.0000000E+00  0.6666667E-02
    1      -14.619973   1.000000
    2      -14.457481   1.000000
    3       -7.926684   1.000000
    4       -7.355858   1.000000
    5       -6.520154   1.000000
    6       -6.029716   1.000000
    7       -5.535054   1.000000
    8       -4.681471   1.000000
    9       -2.673268   1.000000
   10       -0.856419   0.000000
   11        0.478563   0.000000
   12        0.826916   0.000000
   13        2.206476   0.000000
   14        4.494840   0.000000
   15        5.362451   0.000000
   16        6.976926   0.000000
 
  0.3571429E+00  0.2857143E+00  0.0000000E+00  0.6666667E-02
    1      -14.615220   1.000000
    2      -14.454525   1.000000
    3       -7.936703   1.000000
    4       -7.318864   1.000000
    5       -6.536844   1.000000
    6       -6.064940   1.000000
    7       -5.523526   1.000000
    8       -4.694447   1.000000
    9       -2.660087   1.000000
   10       -0.874181   0.000000
   11        0.468898   0.000000
   12        0.844741   0.000000
   13        2.219045   0.000000
   14        4.525530   0.000000
   15        5.301867   0.000000
   16        6.996076   0.000000
 
  0.3537415E+00  0.2925170E+00  0.0000000E+00  0.6666667E-02
    1      -14.610979   1.000000
    2      -14.451903   1.000000
    3       -7.945544   1.000000
    4       -7.283303   1.000000
    5       -6.556775   1.000000
    6       -6.093615   1.000000
    7       -5.512871   1.000000
    8       -4.706467   1.000000
    9       -2.647986   1.000000
   10       -0.890241   0.000000
   11        0.460745   0.000000
   12        0.860688   0.000000
   13        2.229928   0.000000
   14        4.554901   0.000000
   15        5.246076   0.000000
   16        7.013745   0.000000
 
  0.3503401E+00  0.2993197E+00  0.0000000E+00  0.6666667E-02
    1      -14.607287   1.000000
    2      -14.449635   1.000000
    3       -7.953157   1.000000
    4       -7.249862   1.000000
    5       -6.578997   1.000000
    6       -6.115965   1.000000
    7       -5.503310   1.000000
    8       -4.717289   1.000000
    9       -2.637188   1.000000
   10       -0.904368   0.000000
   11        0.454041   0.000000
   12        0.874595   0.000000
   13        2.239107   0.000000
   14        4.582326   0.000000
   15        5.195873   0.000000
   16        7.029619   0.000000
 
  0.3469388E+00  0.3061224E+00  0.0000000E+00  0.6666667E-02
    1      -14.604184   1.000000
    2      -14.447740   1.000000
    3       -7.959492   1.000000
    4       -7.219467   1.000000
    5       -6.601987   1.000000
    6       -6.132560   1.000000
    7       -5.495056   1.000000
    8       -4.726657   1.000000
    9       -2.627918   1.000000
   10       -0.916337   0.000000
   11        0.448726   0.000000
   12        0.886301   0.000000
   13        2.246578   0.000000
   14        4.606964   0.000000
   15        5.152262   0.000000
   16        7.043365   0.000000
 
  0.3435374E+00  0.3129252E+00  0.0000000E+00  0.6666667E-02
    1      -14.601703   1.000000
    2      -14.446236   1.000000
    3       -7.964491   1.000000
    4       -7.193323   1.000000
    5       -6.623713   1.000000
    6       -6.144159   1.000000
    7       -5.488326   1.000000
    8       -4.734310   1.000000
    9       -2.620383   1.000000
   10       -0.925930   0.000000
   11        0.444728   0.000000
   12        0.895650   0.000000
   13        2.252347   0.000000
   14        4.627748   0.000000
   15        5.116477   0.000000
   16        7.054641   0.000000
 
  0.3401361E+00  0.3197279E+00  0.0000000E+00  0.6666667E-02
    1      -14.599890   1.000000
    2      -14.445143   1.000000
    3       -7.968114   1.000000
    4       -7.172918   1.000000
    5       -6.641855   1.000000
    6       -6.151593   1.000000
    7       -5.483320   1.000000
    8       -4.740026   1.000000
    9       -2.614792   1.000000
   10       -0.932965   0.000000
   11        0.441972   0.000000
   12        0.902491   0.000000
   13        2.256428   0.000000
   14        4.643474   0.000000
   15        5.089871   0.000000
   16        7.063094   0.000000
 
  0.3367347E+00  0.3265306E+00  0.0000000E+00  0.6666667E-02
    1      -14.598774   1.000000
    2      -14.444473   1.000000
    3       -7.970313   1.000000
    4       -7.159819   1.000000
    5       -6.654053   1.000000
    6       -6.155607   1.000000
    7       -5.480217   1.000000
    8       -4.743580   1.000000
    9       -2.611323   1.000000
   10       -0.937272   0.000000
   11        0.440381   0.000000
   12        0.906688   0.000000
   13        2.258848   0.000000
   14        4.653099   0.000000
   15        5.073625   0.000000
   16        7.068391   0.000000
 
  0.3333333E+00  0.3333333E+00  0.0000000E+00  0.6666667E-02
    1      -14.598395   1.000000
    2      -14.444245   1.000000
    3       -7.971054   1.000000
    4       -7.155296   1.000000
    5       -6.658401   1.000000
    6       -6.156831   1.000000
    7       -5.479160   1.000000
    8       -4.744785   1.000000
    9       -2.610145   1.000000
   10       -0.938728   0.000000
   11        0.439872   0.000000
   12        0.908112   0.000000
   13        2.259641   0.000000
   14        4.656228   0.000000
   15        5.068263   0.000000
   16        7.070239   0.000000
 
  0.3333333E+00  0.3333333E+00  0.0000000E+00  0.6666667E-02
    1      -14.598395   1.000000
    2      -14.444245   1.000000
    3       -7.971054   1.000000
    4       -7.155296   1.000000
    5       -6.658401   1.000000