 vasp.5.4.4.18Apr17-6-g9f103f2a35 (build May 24 2018 15:12:59) complex          
  
 executed on             LinuxIFC date 2018.11.27  15:31:29
 running on   28 total cores
 distrk:  each k-point on   28 cores,    1 groups
 distr:  one band on NCORES_PER_BAND=   7 cores,    4 groups


--------------------------------------------------------------------------------------------------------


 INCAR:
 POTCAR:    PAW_PBE Mo 08Apr2002                  
 POTCAR:    PAW_PBE S 06Sep2000                   
 POTCAR:    PAW_PBE Mo 08Apr2002                  
   VRHFIN =Mo: 4p5s4d                                                           
   LEXCH  = PE                                                                  
   EATOM  =   217.5176 eV,   15.9871 Ry                                         
                                                                                
   TITEL  = PAW_PBE Mo 08Apr2002                                                
   LULTRA =        F    use ultrasoft PP ?                                      
   IUNSCR =        1    unscreen: 0-lin 1-nonlin 2-no                           
   RPACOR =    2.200    partial core radius                                     
   POMASS =   95.940; ZVAL   =    6.000    mass and valenz                      
   RCORE  =    2.750    outmost cutoff radius                                   
   RWIGS  =    2.750; RWIGS  =    1.455    wigner-seitz radius (au A)           
   ENMAX  =  224.584; ENMIN  =  168.438 eV                                      
   RCLOC  =    2.111    cutoff for local pot                                    
   LCOR   =        T    correct aug charges                                     
   LPAW   =        T    paw PP                                                  
   EAUG   =  345.278                                                            
   DEXC   =    0.000                                                            
   RMAX   =    2.821    core radius for proj-oper                               
   RAUG   =    1.300    factor for augmentation sphere                          
   RDEP   =    2.815    radius for radial grids                                 
   RDEPT  =    2.211    core radius for aug-charge                              
                                                                                
   Atomic configuration                                                         
   12 entries                                                                   
     n  l   j            E        occ.                                          
     1  0  0.50    -19819.0341   2.0000                                         
     2  0  0.50     -2799.0127   2.0000                                         
     2  1  1.50     -2502.0276   6.0000                                         
     3  0  0.50      -476.4448   2.0000                                         
     3  1  1.50      -379.1496   6.0000                                         
     3  2  2.50      -220.9367  10.0000                                         
     4  0  0.50       -64.3378   2.0000                                         
     4  1  1.50       -38.4773   6.0000                                         
     4  2  2.50        -3.7535   5.0000                                         
     5  0  0.50        -4.0862   1.0000                                         
     5  1  0.50        -2.7701   0.0000                                         
     4  3  2.50        -1.3606   0.0000                                         
   Description                                                                  
     l       E           TYP  RCUT    TYP  RCUT                                 
     2     -3.7534765     23  2.500                                             
     2     -5.1140591     23  2.500                                             
     0     -4.0861560     23  2.600                                             
     0     13.6058260     23  2.600                                             
     1      5.4423304     23  2.750                                             
     1     27.2116520     23  2.750                                             
  local pseudopotential read in
  partial core-charges read in
  partial kinetic energy density read in
  atomic valenz-charges read in
  non local Contribution for L=           2  read in
    real space projection operators read in
  non local Contribution for L=           2  read in
    real space projection operators read in
  non local Contribution for L=           0  read in
    real space projection operators read in
  non local Contribution for L=           0  read in
    real space projection operators read in
  non local Contribution for L=           1  read in
    real space projection operators read in
  non local Contribution for L=           1  read in
    real space projection operators read in
    PAW grid and wavefunctions read in
 
   number of l-projection  operators is LMAX  =           6
   number of lm-projection operators is LMMAX =          18
 
 POTCAR:    PAW_PBE S 06Sep2000                   
   VRHFIN =S : s2p4                                                             
   LEXCH  = PE                                                                  
   EATOM  =   276.8230 eV,   20.3459 Ry                                         
                                                                                
   TITEL  = PAW_PBE S 06Sep2000                                                 
   LULTRA =        F    use ultrasoft PP ?                                      
   IUNSCR =        1    unscreen: 0-lin 1-nonlin 2-no                           
   RPACOR =    1.500    partial core radius                                     
   POMASS =   32.066; ZVAL   =    6.000    mass and valenz                      
   RCORE  =    1.900    outmost cutoff radius                                   
   RWIGS  =    2.200; RWIGS  =    1.164    wigner-seitz radius (au A)           
   ENMAX  =  258.689; ENMIN  =  194.016 eV                                      
   ICORE  =        2    local potential                                         
   LCOR   =        T    correct aug charges                                     
   LPAW   =        T    paw PP                                                  
   EAUG   =  335.092                                                            
   DEXC   =    0.000                                                            
   RMAX   =    1.942    core radius for proj-oper                               
   RAUG   =    1.300    factor for augmentation sphere                          
   RDEP   =    1.954    radius for radial grids                                 
   RDEPT  =    1.744    core radius for aug-charge                              
                                                                                
   Atomic configuration                                                         
    6 entries                                                                   
     n  l   j            E        occ.                                          
     1  0  0.50     -2405.8406   2.0000                                         
     2  0  0.50      -211.7007   2.0000                                         
     2  1  1.50      -156.4958   6.0000                                         
     3  0  0.50       -17.2562   2.0000                                         
     3  1  0.50        -7.0085   4.0000                                         
     3  2  1.50        -6.8029   0.0000                                         
   Description                                                                  
     l       E           TYP  RCUT    TYP  RCUT                                 
     0    -17.2561641     23  1.900                                             
     0    -15.8743224     23  1.900                                             
     1     -7.0085400     23  1.900                                             
     1     -2.7779785     23  1.900                                             
     2     -6.8029130     23  1.900                                             
  local pseudopotential read in
  partial core-charges read in
  partial kinetic energy density read in
  atomic valenz-charges read in
  non local Contribution for L=           0  read in
    real space projection operators read in
  non local Contribution for L=           0  read in
    real space projection operators read in
  non local Contribution for L=           1  read in
    real space projection operators read in
  non local Contribution for L=           1  read in
    real space projection operators read in
    PAW grid and wavefunctions read in
 
   number of l-projection  operators is LMAX  =           4
   number of lm-projection operators is LMMAX =           8
 
  PAW_PBE Mo 08Apr2002                  :
 energy of atom  1       EATOM= -217.5176
 kinetic energy error for atom=    0.0017 (will be added to EATOM!!)
  PAW_PBE S 06Sep2000                   :
 energy of atom  2       EATOM= -276.8230
 kinetic energy error for atom=    0.0020 (will be added to EATOM!!)
 
 
 POSCAR: Mo1S2                                   
  positions in direct lattice
  velocities in cartesian coordinates
 exchange correlation table for  LEXCH =        8
   RHO(1)=    0.500       N(1)  =     2000
   RHO(2)=  100.500       N(2)  =     4000
 


--------------------------------------------------------------------------------------------------------


 ion  position               nearest neighbor table
   1  0.667  0.333  0.168-   2 2.41   3 2.41   2 2.41   2 2.41   3 2.41   3 2.41
   2  0.333  0.667  0.091-   1 2.41   1 2.41   1 2.41
   3  0.333  0.667  0.245-   1 2.41   1 2.41   1 2.41
 
  LATTYP: Found a hexagonal cell.
 ALAT       =     3.1830599308
 C/A-ratio  =     6.3680761512
  
  Lattice vectors:
  
 A1 = (   3.1830599308,   0.0000000000,   0.0000000000)
 A2 = (  -1.5915299654,   2.7566107618,   0.0000000000)
 A3 = (   0.0000026991,   0.0000109083,  20.2699680328)


Analysis of symmetry for initial positions (statically):
=====================================================================
 Subroutine PRICEL returns:
 Original cell was already a primitive cell.
 

 Routine SETGRP: Setting up the symmetry group for a 
 hexagonal supercell.


 Subroutine GETGRP returns: Found  4 space group operations
 (whereof  1 operations were pure point group operations)
 out of a pool of 24 trial point group operations.


The static configuration has the point symmetry C_1 .
 The point group associated with its full space group is C_2v.


Analysis of symmetry for dynamics (positions and initial velocities):
=====================================================================
 Subroutine PRICEL returns:
 Original cell was already a primitive cell.
 

 Routine SETGRP: Setting up the symmetry group for a 
 hexagonal supercell.


 Subroutine GETGRP returns: Found  4 space group operations
 (whereof  1 operations were pure point group operations)
 out of a pool of 24 trial point group operations.


The dynamic configuration has the point symmetry C_1 .
 The point group associated with its full space group is C_2v.


 Subroutine INISYM returns: Found  4 space group operations
 (whereof  1 operations are pure point group operations),
 and found     1 'primitive' translations

 
 
 KPOINTS: Hexagonal M-K-G-M                       
  interpolating k-points between supplied coordinates
  k-points in reciprocal lattice
Space group operators:
 irot       det(A)        alpha          n_x          n_y          n_z        tau_x        tau_y        tau_z
    1     1.000000     0.000000     1.000000     0.000000     0.000000     0.000000     0.000000     0.000000
    2    -1.000000   180.000000     0.000000     0.000000     1.000000     0.000000     0.000000     0.335628
    3    -1.000000   180.000000    -0.500000     0.866025    -0.000000     0.000000     0.999974     0.000000
    4     1.000000   180.000000    -0.866025    -0.500000     0.000000    -0.000000     0.999974     0.335628


--------------------------------------------------------------------------------------------------------




 Dimension of arrays:
   k-points           NKPTS =    150   k-points in BZ     NKDIM =    150   number of bands    NBANDS=     16
   number of dos      NEDOS =    301   number of ions     NIONS =      3
   non local maximal  LDIM  =      6   non local SUM 2l+1 LMDIM =     18
   total plane-waves  NPLWV =  36288
   max r-space proj   IRMAX =      1   max aug-charges    IRDMAX=  13297
   dimension x,y,z NGX =    18 NGY =   18 NGZ =  112
   dimension x,y,z NGXF=    36 NGYF=   36 NGZF=  224
   support grid    NGXF=    36 NGYF=   36 NGZF=  224
   ions per type =               1   2
   NGX,Y,Z   is equivalent  to a cutoff of   9.40,  9.40,  9.19 a.u.
   NGXF,Y,Z  is equivalent  to a cutoff of  18.80, 18.80, 18.37 a.u.

 SYSTEM =  MoS2                                    
 POSCAR =  Mo1S2                                   

 Startparameter for this run:
   NWRITE =      2    write-flag & timer
   PREC   = normal    normal or accurate (medium, high low for compatibility)
   ISTART =      0    job   : 0-new  1-cont  2-samecut
   ICHARG =     11    charge: 1-file 2-atom 10-const
   ISPIN  =      1    spin polarized calculation?
   LNONCOLLINEAR =      F non collinear calculations
   LSORBIT =      F    spin-orbit coupling
   INIWAV =      1    electr: 0-lowe 1-rand  2-diag
   LASPH  =      F    aspherical Exc in radial PAW
   METAGGA=      F    non-selfconsistent MetaGGA calc.

 Electronic Relaxation 1
   ENCUT  =  500.0 eV  36.75 Ry    6.06 a.u.   5.80  5.80 36.96*2*pi/ulx,y,z
   ENINI  =  500.0     initial cutoff
   ENAUG  =  345.3 eV  augmentation charge cutoff
   NELM   =    300;   NELMIN=  2; NELMDL= -5     # of ELM steps 
   EDIFF  = 0.1E-05   stopping-criterion for ELM
   LREAL  =      F    real-space projection
   NLSPLINE    = F    spline interpolate recip. space projectors
   LCOMPAT=      F    compatible to vasp.4.4
   GGA_COMPAT  = T    GGA compatible to vasp.4.4-vasp.4.6
   LMAXPAW     = -100 max onsite density
   LMAXMIX     =    2 max onsite mixed and CHGCAR
   VOSKOWN=      0    Vosko Wilk Nusair interpolation
   ROPT   =    0.00000   0.00000
 Ionic relaxation
   EDIFFG = 0.1E-04   stopping-criterion for IOM
   NSW    =      0    number of steps for IOM
   NBLOCK =      1;   KBLOCK =      1    inner block; outer block 
   IBRION =     -1    ionic relax: 0-MD 1-quasi-New 2-CG
   NFREE  =      0    steps in history (QN), initial steepest desc. (CG)
   ISIF   =      2    stress and relaxation
   IWAVPR =     10    prediction:  0-non 1-charg 2-wave 3-comb
   ISYM   =      2    0-nonsym 1-usesym 2-fastsym
   LCORR  =      T    Harris-Foulkes like correction to forces

   POTIM  = 0.5000    time-step for ionic-motion
   TEIN   =    0.0    initial temperature
   TEBEG  =    0.0;   TEEND  =   0.0 temperature during run
   SMASS  =  -3.00    Nose mass-parameter (am)
   estimated Nose-frequenzy (Omega)   =  0.10E-29 period in steps =****** mass=  -0.232E-27a.u.
   SCALEE = 1.0000    scale energy and forces
   NPACO  =    256;   APACO  = 16.0  distance and # of slots for P.C.
   PSTRESS=    0.0 pullay stress

  Mass of Ions in am
   POMASS =  95.94 32.07
  Ionic Valenz
   ZVAL   =   6.00  6.00
  Atomic Wigner-Seitz radii
   RWIGS  =  -1.00 -1.00
  virtual crystal weights 
   VCA    =   1.00  1.00
   NELECT =      18.0000    total number of electrons
   NUPDOWN=      -1.0000    fix difference up-down

 DOS related values:
   EMIN   =  10.00;   EMAX   =-10.00  energy-range for DOS
   EFERMI =   0.00
   ISMEAR =     0;   SIGMA  =   0.05  broadening in eV -4-tet -1-fermi 0-gaus

 Electronic relaxation 2 (details)
   IALGO  =     38    algorithm
   LDIAG  =      T    sub-space diagonalisation (order eigenvalues)
   LSUBROT=      F    optimize rotation matrix (better conditioning)
   TURBO    =      0    0=normal 1=particle mesh
   IRESTART =      0    0=no restart 2=restart with 2 vectors
   NREBOOT  =      0    no. of reboots
   NMIN     =      0    reboot dimension
   EREF     =   0.00    reference energy to select bands
   IMIX   =      4    mixing-type and parameters
     AMIX     =   0.40;   BMIX     =  1.00
     AMIX_MAG =   1.60;   BMIX_MAG =  1.00
     AMIN     =   0.10
     WC   =   100.;   INIMIX=   1;  MIXPRE=   1;  MAXMIX= -45

 Intra band minimization:
   WEIMIN = 0.0000     energy-eigenvalue tresh-hold
   EBREAK =  0.16E-07  absolut break condition
   DEPER  =   0.30     relativ break condition  

   TIME   =   0.40     timestep for ELM

  volume/ion in A,a.u.               =      59.29       400.08
  Fermi-wavevector in a.u.,A,eV,Ry     =   0.762912  1.441695  7.919067  0.582035
  Thomas-Fermi vector in A             =   1.862478
 
 Write flags
   LWAVE        =      F    write WAVECAR
   LDOWNSAMPLE  =      F    k-point downsampling of WAVECAR
   LCHARG       =      F    write CHGCAR
   LVTOT        =      F    write LOCPOT, total local potential
   LVHAR        =      F    write LOCPOT, Hartree potential only
   LELF         =      F    write electronic localiz. function (ELF)
   LORBIT       =     11    0 simple, 1 ext, 2 COOP (PROOUT), +10 PAW based schemes


 Dipole corrections
   LMONO  =      F    monopole corrections only (constant potential shift)
   LDIPOL =      F    correct potential (dipole corrections)
   IDIPOL =      0    1-x, 2-y, 3-z, 4-all directions 
   EPSILON=  1.0000000 bulk dielectric constant

 Exchange correlation treatment:
   GGA     =    --    GGA type
   LEXCH   =     8    internal setting for exchange type
   VOSKOWN=      0    Vosko Wilk Nusair interpolation
   LHFCALC =     F    Hartree Fock is set to
   LHFONE  =     F    Hartree Fock one center treatment
   AEXX    =    0.0000 exact exchange contribution

 Linear response parameters
   LEPSILON=     F    determine dielectric tensor
   LRPA    =     F    only Hartree local field effects (RPA)
   LNABLA  =     F    use nabla operator in PAW spheres
   LVEL    =     F    velocity operator in full k-point grid
   LINTERFAST=   F  fast interpolation
   KINTER  =     0    interpolate to denser k-point grid
   CSHIFT  =0.1000    complex shift for real part using Kramers Kronig
   OMEGAMAX=  -1.0    maximum frequency
   DEG_THRESHOLD= 0.2000000E-02 threshold for treating states as degnerate
   RTIME   =   -0.100 relaxation time in fs
  (WPLASMAI=    0.000 imaginary part of plasma frequency in eV, 0.658/RTIME)
   DFIELD  = 0.0000000 0.0000000 0.0000000 field for delta impulse in time
 
 Orbital magnetization related:
   ORBITALMAG=     F  switch on orbital magnetization
   LCHIMAG   =     F  perturbation theory with respect to B field
   DQ        =  0.001000  dq finite difference perturbation B field
   LLRAUG    =     F  two centre corrections for induced B field



--------------------------------------------------------------------------------------------------------


 Static calculation
 charge density and potential remain constant during run
 non-spin polarized calculation
 Variant of blocked Davidson
 Davidson routine will perform the subspace rotation
 perform sub-space diagonalisation
    after iterative eigenvector-optimisation
 no mixing
 using additional bands            7
 reciprocal scheme for non local part
 use partial core corrections
 calculate Harris-corrections to forces 
   (improved forces if not selfconsistent)
 use gradient corrections 
 WARNING: stress and forces are not correct
  (second derivative of E(xc) not defined)
 use of overlap-Matrix (Vanderbilt PP)
 Gauss-broadening in eV      SIGMA  =   0.05


--------------------------------------------------------------------------------------------------------


  energy-cutoff  :      500.00
  volume of cell :      177.86
      direct lattice vectors                 reciprocal lattice vectors
     3.183059931  0.000000000  0.000000000     0.314163108  0.181382155 -0.000000139
    -1.591529965  2.756610762  0.000000000     0.000000000  0.362764310 -0.000000195
     0.000002699  0.000010908 20.269968033     0.000000000  0.000000000  0.049334069

  length of vectors
     3.183059931  3.183059931 20.269968033     0.362764310  0.362764310  0.049334069


 
 k-points in units of 2pi/SCALE and weight: Hexagonal M-K-G-M                       
   0.15708155  0.09069108 -0.00000007       0.007
   0.15601297  0.09254192 -0.00000007       0.007
   0.15494439  0.09439275 -0.00000007       0.007
   0.15387581  0.09624359 -0.00000007       0.007
   0.15280723  0.09809443 -0.00000007       0.007
   0.15173864  0.09994527 -0.00000007       0.007
   0.15067006  0.10179611 -0.00000007       0.007
   0.14960148  0.10364695 -0.00000008       0.007
   0.14853290  0.10549778 -0.00000008       0.007
   0.14746432  0.10734862 -0.00000008       0.007
   0.14639573  0.10919946 -0.00000008       0.007
   0.14532715  0.11105030 -0.00000008       0.007
   0.14425857  0.11290114 -0.00000008       0.007
   0.14318999  0.11475198 -0.00000008       0.007
   0.14212141  0.11660281 -0.00000008       0.007
   0.14105282  0.11845365 -0.00000008       0.007
   0.13998424  0.12030449 -0.00000008       0.007
   0.13891566  0.12215533 -0.00000008       0.007
   0.13784708  0.12400617 -0.00000009       0.007
   0.13677850  0.12585701 -0.00000009       0.007
   0.13570991  0.12770784 -0.00000009       0.007
   0.13464133  0.12955868 -0.00000009       0.007
   0.13357275  0.13140952 -0.00000009       0.007
   0.13250417  0.13326036 -0.00000009       0.007
   0.13143559  0.13511120 -0.00000009       0.007
   0.13036700  0.13696204 -0.00000009       0.007
   0.12929842  0.13881287 -0.00000009       0.007
   0.12822984  0.14066371 -0.00000009       0.007
   0.12716126  0.14251455 -0.00000009       0.007
   0.12609268  0.14436539 -0.00000009       0.007
   0.12502409  0.14621623 -0.00000010       0.007
   0.12395551  0.14806707 -0.00000010       0.007
   0.12288693  0.14991790 -0.00000010       0.007
   0.12181835  0.15176874 -0.00000010       0.007
   0.12074977  0.15361958 -0.00000010       0.007
   0.11968118  0.15547042 -0.00000010       0.007
   0.11861260  0.15732126 -0.00000010       0.007
   0.11754402  0.15917209 -0.00000010       0.007
   0.11647544  0.16102293 -0.00000010       0.007
   0.11540686  0.16287377 -0.00000010       0.007
   0.11433827  0.16472461 -0.00000010       0.007
   0.11326969  0.16657545 -0.00000010       0.007
   0.11220111  0.16842629 -0.00000011       0.007
   0.11113253  0.17027712 -0.00000011       0.007
   0.11006395  0.17212796 -0.00000011       0.007
   0.10899536  0.17397880 -0.00000011       0.007
   0.10792678  0.17582964 -0.00000011       0.007
   0.10685820  0.17768048 -0.00000011       0.007
   0.10578962  0.17953132 -0.00000011       0.007
   0.10472104  0.18138215 -0.00000011       0.007
   0.10472104  0.18138215 -0.00000011       0.007
   0.10258387  0.17768048 -0.00000011       0.007
   0.10044671  0.17397880 -0.00000011       0.007
   0.09830954  0.17027712 -0.00000010       0.007
   0.09617238  0.16657545 -0.00000010       0.007
   0.09403522  0.16287377 -0.00000010       0.007
   0.09189805  0.15917209 -0.00000010       0.007
   0.08976089  0.15547042 -0.00000010       0.007
   0.08762372  0.15176874 -0.00000009       0.007
   0.08548656  0.14806707 -0.00000009       0.007
   0.08334940  0.14436539 -0.00000009       0.007
   0.08121223  0.14066371 -0.00000009       0.007
   0.07907507  0.13696204 -0.00000008       0.007
   0.07693790  0.13326036 -0.00000008       0.007
   0.07480074  0.12955868 -0.00000008       0.007
   0.07266358  0.12585701 -0.00000008       0.007
   0.07052641  0.12215533 -0.00000008       0.007
   0.06838925  0.11845365 -0.00000007       0.007
   0.06625208  0.11475198 -0.00000007       0.007
   0.06411492  0.11105030 -0.00000007       0.007
   0.06197776  0.10734862 -0.00000007       0.007
   0.05984059  0.10364695 -0.00000006       0.007
   0.05770343  0.09994527 -0.00000006       0.007
   0.05556626  0.09624359 -0.00000006       0.007
   0.05342910  0.09254192 -0.00000006       0.007
   0.05129194  0.08884024 -0.00000005       0.007
   0.04915477  0.08513856 -0.00000005       0.007
   0.04701761  0.08143689 -0.00000005       0.007
   0.04488044  0.07773521 -0.00000005       0.007
   0.04274328  0.07403353 -0.00000005       0.007
   0.04060612  0.07033186 -0.00000004       0.007
   0.03846895  0.06663018 -0.00000004       0.007
   0.03633179  0.06292850 -0.00000004       0.007
   0.03419462  0.05922683 -0.00000004       0.007
   0.03205746  0.05552515 -0.00000003       0.007
   0.02992030  0.05182347 -0.00000003       0.007
   0.02778313  0.04812180 -0.00000003       0.007
   0.02564597  0.04442012 -0.00000003       0.007
   0.02350880  0.04071844 -0.00000003       0.007
   0.02137164  0.03701677 -0.00000002       0.007
   0.01923448  0.03331509 -0.00000002       0.007
   0.01709731  0.02961341 -0.00000002       0.007
   0.01496015  0.02591174 -0.00000002       0.007
   0.01282298  0.02221006 -0.00000001       0.007
   0.01068582  0.01850838 -0.00000001       0.007
   0.00854866  0.01480671 -0.00000001       0.007
   0.00641149  0.01110503 -0.00000001       0.007
   0.00427433  0.00740335 -0.00000000       0.007
   0.00213716  0.00370168 -0.00000000       0.007
   0.00000000  0.00000000  0.00000000       0.007
   0.00000000  0.00000000  0.00000000       0.007
   0.00320575  0.00185084 -0.00000000       0.007
   0.00641149  0.00370168 -0.00000000       0.007
   0.00961724  0.00555251 -0.00000000       0.007
   0.01282298  0.00740335 -0.00000001       0.007
   0.01602873  0.00925419 -0.00000001       0.007
   0.01923448  0.01110503 -0.00000001       0.007
   0.02244022  0.01295587 -0.00000001       0.007
   0.02564597  0.01480671 -0.00000001       0.007
   0.02885171  0.01665754 -0.00000001       0.007
   0.03205746  0.01850838 -0.00000001       0.007
   0.03526321  0.02035922 -0.00000002       0.007
   0.03846895  0.02221006 -0.00000002       0.007
   0.04167470  0.02406090 -0.00000002       0.007
   0.04488044  0.02591174 -0.00000002       0.007
   0.04808619  0.02776257 -0.00000002       0.007
   0.05129194  0.02961341 -0.00000002       0.007
   0.05449768  0.03146425 -0.00000002       0.007
   0.05770343  0.03331509 -0.00000003       0.007
   0.06090917  0.03516593 -0.00000003       0.007
   0.06411492  0.03701677 -0.00000003       0.007
   0.06732067  0.03886760 -0.00000003       0.007
   0.07052641  0.04071844 -0.00000003       0.007
   0.07373216  0.04256928 -0.00000003       0.007
   0.07693790  0.04442012 -0.00000003       0.007
   0.08014365  0.04627096 -0.00000004       0.007
   0.08334940  0.04812180 -0.00000004       0.007
   0.08655514  0.04997263 -0.00000004       0.007
   0.08976089  0.05182347 -0.00000004       0.007
   0.09296663  0.05367431 -0.00000004       0.007
   0.09617238  0.05552515 -0.00000004       0.007
   0.09937813  0.05737599 -0.00000004       0.007
   0.10258387  0.05922683 -0.00000005       0.007
   0.10578962  0.06107766 -0.00000005       0.007
   0.10899536  0.06292850 -0.00000005       0.007
   0.11220111  0.06477934 -0.00000005       0.007
   0.11540686  0.06663018 -0.00000005       0.007
   0.11861260  0.06848102 -0.00000005       0.007
   0.12181835  0.07033186 -0.00000005       0.007
   0.12502409  0.07218269 -0.00000006       0.007
   0.12822984  0.07403353 -0.00000006       0.007
   0.13143559  0.07588437 -0.00000006       0.007
   0.13464133  0.07773521 -0.00000006       0.007
   0.13784708  0.07958605 -0.00000006       0.007
   0.14105282  0.08143689 -0.00000006       0.007
   0.14425857  0.08328772 -0.00000006       0.007
   0.14746432  0.08513856 -0.00000007       0.007
   0.15067006  0.08698940 -0.00000007       0.007
   0.15387581  0.08884024 -0.00000007       0.007
   0.15708155  0.09069108 -0.00000007       0.007
 
 k-points in reciprocal lattice and weights: Hexagonal M-K-G-M                       
   0.50000000  0.00000000  0.00000000       0.007
   0.49659864  0.00680272  0.00000000       0.007
   0.49319728  0.01360544  0.00000000       0.007
   0.48979592  0.02040816  0.00000000       0.007
   0.48639456  0.02721088  0.00000000       0.007
   0.48299320  0.03401361  0.00000000       0.007
   0.47959184  0.04081633  0.00000000       0.007
   0.47619048  0.04761905  0.00000000       0.007
   0.47278912  0.05442177  0.00000000       0.007
   0.46938776  0.06122449  0.00000000       0.007
   0.46598639  0.06802721  0.00000000       0.007
   0.46258503  0.07482993  0.00000000       0.007
   0.45918367  0.08163265  0.00000000       0.007
   0.45578231  0.08843537  0.00000000       0.007
   0.45238095  0.09523810  0.00000000       0.007
   0.44897959  0.10204082  0.00000000       0.007
   0.44557823  0.10884354  0.00000000       0.007
   0.44217687  0.11564626  0.00000000       0.007
   0.43877551  0.12244898  0.00000000       0.007
   0.43537415  0.12925170  0.00000000       0.007
   0.43197279  0.13605442  0.00000000       0.007
   0.42857143  0.14285714  0.00000000       0.007
   0.42517007  0.14965986  0.00000000       0.007
   0.42176871  0.15646258  0.00000000       0.007
   0.41836735  0.16326531  0.00000000       0.007
   0.41496599  0.17006803  0.00000000       0.007
   0.41156463  0.17687075  0.00000000       0.007
   0.40816327  0.18367347  0.00000000       0.007
   0.40476190  0.19047619  0.00000000       0.007
   0.40136054  0.19727891  0.00000000       0.007
   0.39795918  0.20408163  0.00000000       0.007
   0.39455782  0.21088435  0.00000000       0.007
   0.39115646  0.21768707  0.00000000       0.007
   0.38775510  0.22448980  0.00000000       0.007
   0.38435374  0.23129252  0.00000000       0.007
   0.38095238  0.23809524  0.00000000       0.007
   0.37755102  0.24489796  0.00000000       0.007
   0.37414966  0.25170068  0.00000000       0.007
   0.37074830  0.25850340  0.00000000       0.007
   0.36734694  0.26530612  0.00000000       0.007
   0.36394558  0.27210884  0.00000000       0.007
   0.36054422  0.27891156  0.00000000       0.007
   0.35714286  0.28571429  0.00000000       0.007
   0.35374150  0.29251701  0.00000000       0.007
   0.35034014  0.29931973  0.00000000       0.007
   0.34693878  0.30612245  0.00000000       0.007
   0.34353741  0.31292517  0.00000000       0.007
   0.34013605  0.31972789  0.00000000       0.007
   0.33673469  0.32653061  0.00000000       0.007
   0.33333333  0.33333333  0.00000000       0.007
   0.33333333  0.33333333  0.00000000       0.007
   0.32653061  0.32653061  0.00000000       0.007
   0.31972789  0.31972789  0.00000000       0.007
   0.31292517  0.31292517  0.00000000       0.007
   0.30612245  0.30612245  0.00000000       0.007
   0.29931973  0.29931973  0.00000000       0.007
   0.29251701  0.29251701  0.00000000       0.007
   0.28571429  0.28571429  0.00000000       0.007
   0.27891156  0.27891156  0.00000000       0.007
   0.27210884  0.27210884  0.00000000       0.007
   0.26530612  0.26530612  0.00000000       0.007
   0.25850340  0.25850340  0.00000000       0.007
   0.25170068  0.25170068  0.00000000       0.007
   0.24489796  0.24489796  0.00000000       0.007
   0.23809524  0.23809524  0.00000000       0.007
   0.23129252  0.23129252  0.00000000       0.007
   0.22448980  0.22448980  0.00000000       0.007
   0.21768707  0.21768707  0.00000000       0.007
   0.21088435  0.21088435  0.00000000       0.007
   0.20408163  0.20408163  0.00000000       0.007
   0.19727891  0.19727891  0.00000000       0.007
   0.19047619  0.19047619  0.00000000       0.007
   0.18367347  0.18367347  0.00000000       0.007
   0.17687075  0.17687075  0.00000000       0.007
   0.17006803  0.17006803  0.00000000       0.007
   0.16326531  0.16326531  0.00000000       0.007
   0.15646258  0.15646258  0.00000000       0.007
   0.14965986  0.14965986  0.00000000       0.007
   0.14285714  0.14285714  0.00000000       0.007
   0.13605442  0.13605442  0.00000000       0.007
   0.12925170  0.12925170  0.00000000       0.007
   0.12244898  0.12244898  0.00000000       0.007
   0.11564626  0.11564626  0.00000000       0.007
   0.10884354  0.10884354  0.00000000       0.007
   0.10204082  0.10204082  0.00000000       0.007
   0.09523810  0.09523810  0.00000000       0.007
   0.08843537  0.08843537  0.00000000       0.007
   0.08163265  0.08163265  0.00000000       0.007
   0.07482993  0.07482993  0.00000000       0.007
   0.06802721  0.06802721  0.00000000       0.007
   0.06122449  0.06122449  0.00000000       0.007
   0.05442177  0.05442177  0.00000000       0.007
   0.04761905  0.04761905  0.00000000       0.007
   0.04081633  0.04081633  0.00000000       0.007
   0.03401361  0.03401361  0.00000000       0.007
   0.02721088  0.02721088  0.00000000       0.007
   0.02040816  0.02040816  0.00000000       0.007
   0.01360544  0.01360544  0.00000000       0.007
   0.00680272  0.00680272  0.00000000       0.007
   0.00000000  0.00000000  0.00000000       0.007
   0.00000000  0.00000000  0.00000000       0.007
   0.01020408  0.00000000  0.00000000       0.007
   0.02040816  0.00000000  0.00000000       0.007
   0.03061224  0.00000000  0.00000000       0.007
   0.04081633  0.00000000  0.00000000       0.007
   0.05102041  0.00000000  0.00000000       0.007
   0.06122449  0.00000000  0.00000000       0.007
   0.07142857  0.00000000  0.00000000       0.007
   0.08163265  0.00000000  0.00000000       0.007
   0.09183673  0.00000000  0.00000000       0.007
   0.10204082  0.00000000  0.00000000       0.007
   0.11224490  0.00000000  0.00000000       0.007
   0.12244898  0.00000000  0.00000000       0.007
   0.13265306  0.00000000  0.00000000       0.007
   0.14285714  0.00000000  0.00000000       0.007
   0.15306122  0.00000000  0.00000000       0.007
   0.16326531  0.00000000  0.00000000       0.007
   0.17346939  0.00000000  0.00000000       0.007
   0.18367347  0.00000000  0.00000000       0.007
   0.19387755  0.00000000  0.00000000       0.007
   0.20408163  0.00000000  0.00000000       0.007
   0.21428571  0.00000000  0.00000000       0.007
   0.22448980  0.00000000  0.00000000       0.007
   0.23469388  0.00000000  0.00000000       0.007
   0.24489796  0.00000000  0.00000000       0.007
   0.25510204  0.00000000  0.00000000       0.007
   0.26530612  0.00000000  0.00000000       0.007
   0.27551020  0.00000000  0.00000000       0.007
   0.28571429  0.00000000  0.00000000       0.007
   0.29591837  0.00000000  0.00000000       0.007
   0.30612245  0.00000000  0.00000000       0.007
   0.31632653  0.00000000  0.00000000       0.007
   0.32653061  0.00000000  0.00000000       0.007
   0.33673469  0.00000000  0.00000000       0.007
   0.34693878  0.00000000  0.00000000       0.007
   0.35714286  0.00000000  0.00000000       0.007
   0.36734694  0.00000000  0.00000000       0.007
   0.37755102  0.00000000  0.00000000       0.007
   0.38775510  0.00000000  0.00000000       0.007
   0.39795918  0.00000000  0.00000000       0.007
   0.40816327  0.00000000  0.00000000       0.007
   0.41836735  0.00000000  0.00000000       0.007
   0.42857143  0.00000000  0.00000000       0.007
   0.43877551  0.00000000  0.00000000       0.007
   0.44897959  0.00000000  0.00000000       0.007
   0.45918367  0.00000000  0.00000000       0.007
   0.46938776  0.00000000  0.00000000       0.007
   0.47959184  0.00000000  0.00000000       0.007
   0.48979592  0.00000000  0.00000000       0.007
   0.50000000  0.00000000  0.00000000       0.007
 
 position of ions in fractional coordinates (direct lattice) 
   0.66666932  0.33332178  0.16781410
   0.33331886  0.66664608  0.09067811
   0.33331881  0.66664612  0.24495119
 
 position of ions in cartesian coordinates  (Angst):
   1.59155727  0.91884023  3.40158652
  -0.00001306  1.83768475  1.83804237
  -0.00001286  1.83768654  4.96515275
 


--------------------------------------------------------------------------------------------------------


 k-point  1 :   0.5000 0.0000 0.0000  plane waves:    4532
 k-point  2 :   0.4966 0.0068 0.0000  plane waves:    4528
 k-point  3 :   0.4932 0.0136 0.0000  plane waves:    4528
 k-point  4 :   0.4898 0.0204 0.0000  plane waves:    4524
 k-point  5 :   0.4864 0.0272 0.0000  plane waves:    4526
 k-point  6 :   0.4830 0.0340 0.0000  plane waves:    4534
 k-point  7 :   0.4796 0.0408 0.0000  plane waves:    4534
 k-point  8 :   0.4762 0.0476 0.0000  plane waves:    4538
 k-point  9 :   0.4728 0.0544 0.0000  plane waves:    4534
 k-point 10 :   0.4694 0.0612 0.0000  plane waves:    4522
 k-point 11 :   0.4660 0.0680 0.0000  plane waves:    4534
 k-point 12 :   0.4626 0.0748 0.0000  plane waves:    4528
 k-point 13 :   0.4592 0.0816 0.0000  plane waves:    4536
 k-point 14 :   0.4558 0.0884 0.0000  plane waves:    4536
 k-point 15 :   0.4524 0.0952 0.0000  plane waves:    4536
 k-point 16 :   0.4490 0.1020 0.0000  plane waves:    4538
 k-point 17 :   0.4456 0.1088 0.0000  plane waves:    4534
 k-point 18 :   0.4422 0.1156 0.0000  plane waves:    4534
 k-point 19 :   0.4388 0.1224 0.0000  plane waves:    4528
 k-point 20 :   0.4354 0.1293 0.0000  plane waves:    4528
 k-point 21 :   0.4320 0.1361 0.0000  plane waves:    4524
 k-point 22 :   0.4286 0.1429 0.0000  plane waves:    4528
 k-point 23 :   0.4252 0.1497 0.0000  plane waves:    4520
 k-point 24 :   0.4218 0.1565 0.0000  plane waves:    4518
 k-point 25 :   0.4184 0.1633 0.0000  plane waves:    4516
 k-point 26 :   0.4150 0.1701 0.0000  plane waves:    4506
 k-point 27 :   0.4116 0.1769 0.0000  plane waves:    4498
 k-point 28 :   0.4082 0.1837 0.0000  plane waves:    4498
 k-point 29 :   0.4048 0.1905 0.0000  plane waves:    4494
 k-point 30 :   0.4014 0.1973 0.0000  plane waves:    4498
 k-point 31 :   0.3980 0.2041 0.0000  plane waves:    4490
 k-point 32 :   0.3946 0.2109 0.0000  plane waves:    4490
 k-point 33 :   0.3912 0.2177 0.0000  plane waves:    4482
 k-point 34 :   0.3878 0.2245 0.0000  plane waves:    4478
 k-point 35 :   0.3844 0.2313 0.0000  plane waves:    4502
 k-point 36 :   0.3810 0.2381 0.0000  plane waves:    4500
 k-point 37 :   0.3776 0.2449 0.0000  plane waves:    4504
 k-point 38 :   0.3741 0.2517 0.0000  plane waves:    4500
 k-point 39 :   0.3707 0.2585 0.0000  plane waves:    4512
 k-point 40 :   0.3673 0.2653 0.0000  plane waves:    4516
 k-point 41 :   0.3639 0.2721 0.0000  plane waves:    4512
 k-point 42 :   0.3605 0.2789 0.0000  plane waves:    4512
 k-point 43 :   0.3571 0.2857 0.0000  plane waves:    4512
 k-point 44 :   0.3537 0.2925 0.0000  plane waves:    4508
 k-point 45 :   0.3503 0.2993 0.0000  plane waves:    4508
 k-point 46 :   0.3469 0.3061 0.0000  plane waves:    4510
 k-point 47 :   0.3435 0.3129 0.0000  plane waves:    4500
 k-point 48 :   0.3401 0.3197 0.0000  plane waves:    4496
 k-point 49 :   0.3367 0.3265 0.0000  plane waves:    4486
 k-point 50 :   0.3333 0.3333 0.0000  plane waves:    4482
 k-point 51 :   0.3333 0.3333 0.0000  plane waves:    4482
 k-point 52 :   0.3265 0.3265 0.0000  plane waves:    4490
 k-point 53 :   0.3197 0.3197 0.0000  plane waves:    4498
 k-point 54 :   0.3129 0.3129 0.0000  plane waves:    4504
 k-point 55 :   0.3061 0.3061 0.0000  plane waves:    4506
 k-point 56 :   0.2993 0.2993 0.0000  plane waves:    4516
 k-point 57 :   0.2925 0.2925 0.0000  plane waves:    4518
 k-point 58 :   0.2857 0.2857 0.0000  plane waves:    4506
 k-point 59 :   0.2789 0.2789 0.0000  plane waves:    4512
 k-point 60 :   0.2721 0.2721 0.0000  plane waves:    4508
 k-point 61 :   0.2653 0.2653 0.0000  plane waves:    4504
 k-point 62 :   0.2585 0.2585 0.0000  plane waves:    4516
 k-point 63 :   0.2517 0.2517 0.0000  plane waves:    4530
 k-point 64 :   0.2449 0.2449 0.0000  plane waves:    4522
 k-point 65 :   0.2381 0.2381 0.0000  plane waves:    4528
 k-point 66 :   0.2313 0.2313 0.0000  plane waves:    4524
 k-point 67 :   0.2245 0.2245 0.0000  plane waves:    4518
 k-point 68 :   0.2177 0.2177 0.0000  plane waves:    4518
 k-point 69 :   0.2109 0.2109 0.0000  plane waves:    4514
 k-point 70 :   0.2041 0.2041 0.0000  plane waves:    4508
 k-point 71 :   0.1973 0.1973 0.0000  plane waves:    4506
 k-point 72 :   0.1905 0.1905 0.0000  plane waves:    4506
 k-point 73 :   0.1837 0.1837 0.0000  plane waves:    4504
 k-point 74 :   0.1769 0.1769 0.0000  plane waves:    4504
 k-point 75 :   0.1701 0.1701 0.0000  plane waves:    4508
 k-point 76 :   0.1633 0.1633 0.0000  plane waves:    4506
 k-point 77 :   0.1565 0.1565 0.0000  plane waves:    4506
 k-point 78 :   0.1497 0.1497 0.0000  plane waves:    4498
 k-point 79 :   0.1429 0.1429 0.0000  plane waves:    4502
 k-point 80 :   0.1361 0.1361 0.0000  plane waves:    4512
 k-point 81 :   0.1293 0.1293 0.0000  plane waves:    4508
 k-point 82 :   0.1224 0.1224 0.0000  plane waves:    4510
 k-point 83 :   0.1156 0.1156 0.0000  plane waves:    4502
 k-point 84 :   0.1088 0.1088 0.0000  plane waves:    4500
 k-point 85 :   0.1020 0.1020 0.0000  plane waves:    4490
 k-point 86 :   0.0952 0.0952 0.0000  plane waves:    4495
 k-point 87 :   0.0884 0.0884 0.0000  plane waves:    4499
 k-point 88 :   0.0816 0.0816 0.0000  plane waves:    4495
 k-point 89 :   0.0748 0.0748 0.0000  plane waves:    4499
 k-point 90 :   0.0680 0.0680 0.0000  plane waves:    4493
 k-point 91 :   0.0612 0.0612 0.0000  plane waves:    4491
 k-point 92 :   0.0544 0.0544 0.0000  plane waves:    4499
 k-point 93 :   0.0476 0.0476 0.0000  plane waves:    4507
 k-point 94 :   0.0408 0.0408 0.0000  plane waves:    4499
 k-point 95 :   0.0340 0.0340 0.0000  plane waves:    4491
 k-point 96 :   0.0272 0.0272 0.0000  plane waves:    4491
 k-point 97 :   0.0204 0.0204 0.0000  plane waves:    4487
 k-point 98 :   0.0136 0.0136 0.0000  plane waves:    4487
 k-point 99 :   0.0068 0.0068 0.0000  plane waves:    4491
 k-point ** :   0.0000 0.0000 0.0000  plane waves:    4495
 k-point ** :   0.0000 0.0000 0.0000  plane waves:    4495
 k-point ** :   0.0102 0.0000 0.0000  plane waves:    4499
 k-point ** :   0.0204 0.0000 0.0000  plane waves:    4487
 k-point ** :   0.0306 0.0000 0.0000  plane waves:    4486
 k-point ** :   0.0408 0.0000 0.0000  plane waves:    4482
 k-point ** :   0.0510 0.0000 0.0000  plane waves:    4482
 k-point ** :   0.0612 0.0000 0.0000  plane waves:    4492
 k-point ** :   0.0714 0.0000 0.0000  plane waves:    4498
 k-point ** :   0.0816 0.0000 0.0000  plane waves:    4498
 k-point ** :   0.0918 0.0000 0.0000  plane waves:    4502
 k-point ** :   0.1020 0.0000 0.0000  plane waves:    4496
 k-point ** :   0.1122 0.0000 0.0000  plane waves:    4492
 k-point ** :   0.1224 0.0000 0.0000  plane waves:    4486
 k-point ** :   0.1327 0.0000 0.0000  plane waves:    4480
 k-point ** :   0.1429 0.0000 0.0000  plane waves:    4492
 k-point ** :   0.1531 0.0000 0.0000  plane waves:    4496
 k-point ** :   0.1633 0.0000 0.0000  plane waves:    4498
 k-point ** :   0.1735 0.0000 0.0000  plane waves:    4506
 k-point ** :   0.1837 0.0000 0.0000  plane waves:    4508
 k-point ** :   0.1939 0.0000 0.0000  plane waves:    4512
 k-point ** :   0.2041 0.0000 0.0000  plane waves:    4520
 k-point ** :   0.2143 0.0000 0.0000  plane waves:    4524
 k-point ** :   0.2245 0.0000 0.0000  plane waves:    4512
 k-point ** :   0.2347 0.0000 0.0000  plane waves:    4514
 k-point ** :   0.2449 0.0000 0.0000  plane waves:    4514
 k-point ** :   0.2551 0.0000 0.0000  plane waves:    4516
 k-point ** :   0.2653 0.0000 0.0000  plane waves:    4512
 k-point ** :   0.2755 0.0000 0.0000  plane waves:    4504
 k-point ** :   0.2857 0.0000 0.0000  plane waves:    4520
 k-point ** :   0.2959 0.0000 0.0000  plane waves:    4522
 k-point ** :   0.3061 0.0000 0.0000  plane waves:    4520
 k-point ** :   0.3163 0.0000 0.0000  plane waves:    4522
 k-point ** :   0.3265 0.0000 0.0000  plane waves:    4514
 k-point ** :   0.3367 0.0000 0.0000  plane waves:    4518
 k-point ** :   0.3469 0.0000 0.0000  plane waves:    4518
 k-point ** :   0.3571 0.0000 0.0000  plane waves:    4528
 k-point ** :   0.3673 0.0000 0.0000  plane waves:    4526
 k-point ** :   0.3776 0.0000 0.0000  plane waves:    4526
 k-point ** :   0.3878 0.0000 0.0000  plane waves:    4532
 k-point ** :   0.3980 0.0000 0.0000  plane waves:    4530
 k-point ** :   0.4082 0.0000 0.0000  plane waves:    4528
 k-point ** :   0.4184 0.0000 0.0000  plane waves:    4548
 k-point ** :   0.4286 0.0000 0.0000  plane waves:    4542
 k-point ** :   0.4388 0.0000 0.0000  plane waves:    4540
 k-point ** :   0.4490 0.0000 0.0000  plane waves:    4532
 k-point ** :   0.4592 0.0000 0.0000  plane waves:    4530
 k-point ** :   0.4694 0.0000 0.0000  plane waves:    4532
 k-point ** :   0.4796 0.0000 0.0000  plane waves:    4526
 k-point ** :   0.4898 0.0000 0.0000  plane waves:    4532
 k-point ** :   0.5000 0.0000 0.0000  plane waves:    4532

 maximum and minimum number of plane-waves per node :       662      620

 maximum number of plane-waves:      4548
 maximum index in each direction: 
   IXMAX=    5   IYMAX=    5   IZMAX=   36
   IXMIN=   -6   IYMIN=   -6   IZMIN=  -36


 parallel 3D FFT for wavefunctions:
    minimum data exchange during FFTs selected (reduces bandwidth)
 parallel 3D FFT for charge:
    minimum data exchange during FFTs selected (reduces bandwidth)


 total amount of memory used by VASP MPI-rank0    67127. kBytes
=======================================================================

   base      :      30000. kBytes
   nonl-proj :      28716. kBytes
   fftplans  :        679. kBytes
   grid      :       1151. kBytes
   one-center:         15. kBytes
   wavefun   :       6566. kBytes
 
     INWAV:  cpu time    0.0000: real time    0.0001
 initial charge density was supplied:
 number of electron      18.0000013 magnetization 
 keeping initial charge density in first step


--------------------------------------------------------------------------------------------------------


 Maximum index for augmentation-charges          826 (set IRDMAX)


--------------------------------------------------------------------------------------------------------


 First call to EWALD:  gamma=   0.315
 Maximum number of real-space cells 5x 5x 1
 Maximum number of reciprocal cells 2x 2x 9

    FEWALD:  cpu time    0.0017: real time    0.0024


--------------------------------------- Iteration      1(   1)  ---------------------------------------


    POTLOK:  cpu time    0.0150: real time    0.0260
    SETDIJ:  cpu time    0.0034: real time    0.0045
     EDDAV:  cpu time    1.1485: real time    1.1775
       DOS:  cpu time    0.0022: real time    0.0043
    --------------------------------------------
      LOOP:  cpu time    1.1701: real time    1.2124

 eigenvalue-minimisations  :  4800
 total energy-change (2. order) : 0.1165016E+03  (-0.6092016E+03)
 number of electron      18.0000013 magnetization 
 augmentation part       18.0000013 magnetization 

 Free energy of the ion-electron system (eV)
  ---------------------------------------------------
  alpha Z        PSCENC =        16.67021146
  Ewald energy   TEWEN  =      2536.01924891
  -Hartree energ DENC   =     -3249.40427490
  -exchange      EXHF   =         0.00000000
  -V(xc)+E(xc)   XCENC  =       -35.15763025
  PAW double counting   =      1604.01216635    -1528.22186513
  entropy T*S    EENTRO =        -0.00237096
  eigenvalues    EBANDS =         1.42819806
  atomic energy  EATOM  =       771.15796241
  Solvation  Ediel_sol  =         0.00000000
  ---------------------------------------------------
  free energy    TOTEN  =       116.50164595 eV

  energy without entropy =      116.50401691  energy(sigma->0) =      116.50283143


--------------------------------------------------------------------------------------------------------




--------------------------------------- Iteration      1(   2)  ---------------------------------------


     EDDAV:  cpu time    1.7734: real time    1.7827
       DOS:  cpu time    0.0019: real time    0.0019
    --------------------------------------------
      LOOP:  cpu time    1.7745: real time    1.7846

 eigenvalue-minimisations  :  7328
 total energy-change (2. order) :-0.1266063E+03  (-0.1154409E+03)
 number of electron      18.0000013 magnetization 
 augmentation part       18.0000013 magnetization 

 Free energy of the ion-electron system (eV)
  ---------------------------------------------------
  alpha Z        PSCENC =        16.67021146
  Ewald energy   TEWEN  =      2536.01924891
  -Hartree energ DENC   =     -3249.40427490
  -exchange      EXHF   =         0.00000000
  -V(xc)+E(xc)   XCENC  =       -35.15763025
  PAW double counting   =      1604.01216635    -1528.22186513
  entropy T*S    EENTRO =        -0.00000311
  eigenvalues    EBANDS =      -125.18051706
  atomic energy  EATOM  =       771.15796241
  Solvation  Ediel_sol  =         0.00000000
  ---------------------------------------------------
  free energy    TOTEN  =       -10.10470132 eV

  energy without entropy =      -10.10469821  energy(sigma->0) =      -10.10469977


--------------------------------------------------------------------------------------------------------




--------------------------------------- Iteration      1(   3)  ---------------------------------------


     EDDAV:  cpu time    1.4037: real time    1.4036
       DOS:  cpu time    0.0013: real time    0.0013
    --------------------------------------------
      LOOP:  cpu time    1.4050: real time    1.4049

 eigenvalue-minimisations  :  6248
 total energy-change (2. order) :-0.1117577E+02  (-0.1101472E+02)
 number of electron      18.0000013 magnetization 
 augmentation part       18.0000013 magnetization 

 Free energy of the ion-electron system (eV)
  ---------------------------------------------------
  alpha Z        PSCENC =        16.67021146
  Ewald energy   TEWEN  =      2536.01924891
  -Hartree energ DENC   =     -3249.40427490
  -exchange      EXHF   =         0.00000000
  -V(xc)+E(xc)   XCENC  =       -35.15763025
  PAW double counting   =      1604.01216635    -1528.22186513
  entropy T*S    EENTRO =        -0.00000000
  eigenvalues    EBANDS =      -136.35629337
  atomic energy  EATOM  =       771.15796241
  Solvation  Ediel_sol  =         0.00000000
  ---------------------------------------------------
  free energy    TOTEN  =       -21.28047451 eV

  energy without entropy =      -21.28047451  energy(sigma->0) =      -21.28047451


--------------------------------------------------------------------------------------------------------




--------------------------------------- Iteration      1(   4)  ---------------------------------------


     EDDAV:  cpu time    1.3577: real time    1.3575
       DOS:  cpu time    0.0013: real time    0.0013
    --------------------------------------------
      LOOP:  cpu time    1.3590: real time    1.3588

 eigenvalue-minimisations  :  6072
 total energy-change (2. order) :-0.2065991E+00  (-0.2061400E+00)
 number of electron      18.0000013 magnetization 
 augmentation part       18.0000013 magnetization 

 Free energy of the ion-electron system (eV)
  ---------------------------------------------------
  alpha Z        PSCENC =        16.67021146
  Ewald energy   TEWEN  =      2536.01924891
  -Hartree energ DENC   =     -3249.40427490
  -exchange      EXHF   =         0.00000000
  -V(xc)+E(xc)   XCENC  =       -35.15763025
  PAW double counting   =      1604.01216635    -1528.22186513
  entropy T*S    EENTRO =        -0.00000000
  eigenvalues    EBANDS =      -136.56289250
  atomic energy  EATOM  =       771.15796241
  Solvation  Ediel_sol  =         0.00000000
  ---------------------------------------------------
  free energy    TOTEN  =       -21.48707365 eV

  energy without entropy =      -21.48707365  energy(sigma->0) =      -21.48707365


--------------------------------------------------------------------------------------------------------




--------------------------------------- Iteration      1(   5)  ---------------------------------------


     EDDAV:  cpu time    1.4744: real time    1.4746
       DOS:  cpu time    0.0013: real time    0.0013
    --------------------------------------------
      LOOP:  cpu time    1.4757: real time    1.4759

 eigenvalue-minimisations  :  6632
 total energy-change (2. order) :-0.5269137E-02  (-0.5268423E-02)
 number of electron      18.0000013 magnetization 
 augmentation part       18.0000013 magnetization 

 Free energy of the ion-electron system (eV)
  ---------------------------------------------------
  alpha Z        PSCENC =        16.67021146
  Ewald energy   TEWEN  =      2536.01924891
  -Hartree energ DENC   =     -3249.40427490
  -exchange      EXHF   =         0.00000000
  -V(xc)+E(xc)   XCENC  =       -35.15763025
  PAW double counting   =      1604.01216635    -1528.22186513
  entropy T*S    EENTRO =        -0.00000000
  eigenvalues    EBANDS =      -136.56816164
  atomic energy  EATOM  =       771.15796241
  Solvation  Ediel_sol  =         0.00000000
  ---------------------------------------------------
  free energy    TOTEN  =       -21.49234278 eV

  energy without entropy =      -21.49234278  energy(sigma->0) =      -21.49234278


--------------------------------------------------------------------------------------------------------




--------------------------------------- Iteration      1(   6)  ---------------------------------------


     EDDAV:  cpu time    1.6157: real time    1.6157
       DOS:  cpu time    0.0013: real time    0.0013
    --------------------------------------------
      LOOP:  cpu time    1.6170: real time    1.6170

 eigenvalue-minimisations  :  6728
 total energy-change (2. order) :-0.2196443E-03  (-0.2196408E-03)
 number of electron      18.0000013 magnetization 
 augmentation part       18.0000013 magnetization 

 Free energy of the ion-electron system (eV)
  ---------------------------------------------------
  alpha Z        PSCENC =        16.67021146
  Ewald energy   TEWEN  =      2536.01924891
  -Hartree energ DENC   =     -3249.40427490
  -exchange      EXHF   =         0.00000000
  -V(xc)+E(xc)   XCENC  =       -35.15763025
  PAW double counting   =      1604.01216635    -1528.22186513
  entropy T*S    EENTRO =        -0.00000000
  eigenvalues    EBANDS =      -136.56838128
  atomic energy  EATOM  =       771.15796241
  Solvation  Ediel_sol  =         0.00000000
  ---------------------------------------------------
  free energy    TOTEN  =       -21.49256243 eV

  energy without entropy =      -21.49256243  energy(sigma->0) =      -21.49256243


--------------------------------------------------------------------------------------------------------




--------------------------------------- Iteration      1(   7)  ---------------------------------------


     EDDAV:  cpu time    1.5151: real time    1.5147
       DOS:  cpu time    0.0013: real time    0.0013
    --------------------------------------------
      LOOP:  cpu time    1.5164: real time    1.5159

 eigenvalue-minimisations  :  6872
 total energy-change (2. order) :-0.5602076E-05  (-0.5601796E-05)
 number of electron      18.0000013 magnetization 
 augmentation part       18.0000013 magnetization 

 Free energy of the ion-electron system (eV)
  ---------------------------------------------------
  alpha Z        PSCENC =        16.67021146
  Ewald energy   TEWEN  =      2536.01924891
  -Hartree energ DENC   =     -3249.40427490
  -exchange      EXHF   =         0.00000000
  -V(xc)+E(xc)   XCENC  =       -35.15763025
  PAW double counting   =      1604.01216635    -1528.22186513
  entropy T*S    EENTRO =        -0.00000000
  eigenvalues    EBANDS =      -136.56838688
  atomic energy  EATOM  =       771.15796241
  Solvation  Ediel_sol  =         0.00000000
  ---------------------------------------------------
  free energy    TOTEN  =       -21.49256803 eV

  energy without entropy =      -21.49256803  energy(sigma->0) =      -21.49256803


--------------------------------------------------------------------------------------------------------




--------------------------------------- Iteration      1(   8)  ---------------------------------------


     EDDAV:  cpu time    1.3630: real time    1.3621
       DOS:  cpu time    0.0013: real time    0.0013
    --------------------------------------------
      LOOP:  cpu time    1.3642: real time    1.3633

 eigenvalue-minimisations  :  6008
 total energy-change (2. order) :-0.2687630E-06  (-0.2687868E-06)
 number of electron      18.0000013 magnetization 
 augmentation part       18.0000013 magnetization 

 Free energy of the ion-electron system (eV)
  ---------------------------------------------------
  alpha Z        PSCENC =        16.67021146
  Ewald energy   TEWEN  =      2536.01924891
  -Hartree energ DENC   =     -3249.40427490
  -exchange      EXHF   =         0.00000000
  -V(xc)+E(xc)   XCENC  =       -35.15763025
  PAW double counting   =      1604.01216635    -1528.22186513
  entropy T*S    EENTRO =        -0.00000000
  eigenvalues    EBANDS =      -136.56838715
  atomic energy  EATOM  =       771.15796241
  Solvation  Ediel_sol  =         0.00000000
  ---------------------------------------------------
  free energy    TOTEN  =       -21.49256830 eV

  energy without entropy =      -21.49256830  energy(sigma->0) =      -21.49256830


--------------------------------------------------------------------------------------------------------




 average (electrostatic) potential at core
  the test charge radii are     1.2296  0.9698
  (the norm of the test charge is              1.0000)
       1 -46.0267       2 -93.8825       3 -93.8831
 
 
 
 E-fermi :  -2.3532     XC(G=0):  -3.7487     alpha+bet : -3.5530


 k-point     1 :       0.5000    0.0000    0.0000
  band No.  band energies     occupation 
      1     -14.8526      2.00000
      2     -14.6127      2.00000
      3      -8.3400      2.00000
      4      -7.3764      2.00000
      5      -6.6605      2.00000
      6      -5.7415      2.00000
      7      -4.4603      2.00000
      8      -3.5420      2.00000
      9      -3.2353      2.00000
     10      -0.4002      0.00000
     11       0.1125      0.00000
     12       1.3200      0.00000
     13       1.6772      0.00000
     14       3.5876      0.00000
     15       5.3695      0.00000
     16       5.6852      0.00000

 k-point     2 :       0.4966    0.0068    0.0000
  band No.  band energies     occupation 
      1     -14.8524      2.00000
      2     -14.6126      2.00000
      3      -8.3393      2.00000
      4      -7.3770      2.00000
      5      -6.6603      2.00000
      6      -5.7417      2.00000
      7      -4.4602      2.00000
      8      -3.5479      2.00000
      9      -3.2318      2.00000
     10      -0.3999      0.00000
     11       0.1127      0.00000
     12       1.3209      0.00000
     13       1.6751      0.00000
     14       3.5885      0.00000
     15       5.3732      0.00000
     16       5.6875      0.00000

 k-point     3 :       0.4932    0.0136    0.0000
  band No.  band energies     occupation 
      1     -14.8517      2.00000
      2     -14.6121      2.00000
      3      -8.3373      2.00000
      4      -7.3785      2.00000
      5      -6.6596      2.00000
      6      -5.7422      2.00000
      7      -4.4597      2.00000
      8      -3.5648      2.00000
      9      -3.2220      2.00000
     10      -0.3990      0.00000
     11       0.1134      0.00000
     12       1.3236      0.00000
     13       1.6687      0.00000
     14       3.5910      0.00000
     15       5.3842      0.00000
     16       5.6941      0.00000

 k-point     4 :       0.4898    0.0204    0.0000
  band No.  band energies     occupation 
      1     -14.8506      2.00000
      2     -14.6114      2.00000
      3      -8.3339      2.00000
      4      -7.3810      2.00000
      5      -6.6584      2.00000
      6      -5.7430      2.00000
      7      -4.4590      2.00000
      8      -3.5910      2.00000
      9      -3.2077      2.00000
     10      -0.3975      0.00000
     11       0.1145      0.00000
     12       1.3280      0.00000
     13       1.6582      0.00000
     14       3.5952      0.00000
     15       5.4024      0.00000
     16       5.7053      0.00000

 k-point     5 :       0.4864    0.0272    0.0000
  band No.  band energies     occupation 
      1     -14.8491      2.00000
      2     -14.6103      2.00000
      3      -8.3292      2.00000
      4      -7.3846      2.00000
      5      -6.6567      2.00000
      6      -5.7441      2.00000
      7      -4.4580      2.00000
      8      -3.6245      2.00000
      9      -3.1907      2.00000
     10      -0.3956      0.00000
     11       0.1162      0.00000
     12       1.3341      0.00000
     13       1.6438      0.00000
     14       3.6010      0.00000
     15       5.4277      0.00000
     16       5.7209      0.00000

 k-point     6 :       0.4830    0.0340    0.0000
  band No.  band energies     occupation 
      1     -14.8472      2.00000
      2     -14.6090      2.00000
      3      -8.3231      2.00000
      4      -7.3892      2.00000
      5      -6.6546      2.00000
      6      -5.7454      2.00000
      7      -4.4568      2.00000
      8      -3.6638      2.00000
      9      -3.1724      2.00000
     10      -0.3933      0.00000
     11       0.1185      0.00000
     12       1.3417      0.00000
     13       1.6258      0.00000
     14       3.6085      0.00000
     15       5.4598      0.00000
     16       5.7408      0.00000

 k-point     7 :       0.4796    0.0408    0.0000
  band No.  band energies     occupation 
      1     -14.8448      2.00000
      2     -14.6073      2.00000
      3      -8.3157      2.00000
      4      -7.3948      2.00000
      5      -6.6520      2.00000
      6      -5.7469      2.00000
      7      -4.4555      2.00000
      8      -3.7079      2.00000
      9      -3.1537      2.00000
     10      -0.3908      0.00000
     11       0.1215      0.00000
     12       1.3505      0.00000
     13       1.6047      0.00000
     14       3.6175      0.00000
     15       5.4986      0.00000
     16       5.7651      0.00000

 k-point     8 :       0.4762    0.0476    0.0000
  band No.  band energies     occupation 
      1     -14.8420      2.00000
      2     -14.6054      2.00000
      3      -8.3069      2.00000
      4      -7.4014      2.00000
      5      -6.6490      2.00000
      6      -5.7486      2.00000
      7      -4.4540      2.00000
      8      -3.7560      2.00000
      9      -3.1353      2.00000
     10      -0.3883      0.00000
     11       0.1252      0.00000
     12       1.3603      0.00000
     13       1.5811      0.00000
     14       3.6279      0.00000
     15       5.5436      0.00000
     16       5.7934      0.00000

 k-point     9 :       0.4728    0.0544    0.0000
  band No.  band energies     occupation 
      1     -14.8388      2.00000
      2     -14.6032      2.00000
      3      -8.2968      2.00000
      4      -7.4090      2.00000
      5      -6.6455      2.00000
      6      -5.7503      2.00000
      7      -4.4525      2.00000
      8      -3.8075      2.00000
      9      -3.1175      2.00000
     10      -0.3858      0.00000
     11       0.1298      0.00000
     12       1.3703      0.00000
     13       1.5560      0.00000
     14       3.6398      0.00000
     15       5.5947      0.00000
     16       5.8260      0.00000

 k-point    10 :       0.4694    0.0612    0.0000
  band No.  band energies     occupation 
      1     -14.8353      2.00000
      2     -14.6007      2.00000
      3      -8.2854      2.00000
      4      -7.4176      2.00000
      5      -6.6416      2.00000
      6      -5.7519      2.00000
      7      -4.4510      2.00000
      8      -3.8620      2.00000
      9      -3.1004      2.00000
     10      -0.3836      0.00000
     11       0.1355      0.00000
     12       1.3790      0.00000
     13       1.5312      0.00000
     14       3.6531      0.00000
     15       5.6512      0.00000
     16       5.8622      0.00000

 k-point    11 :       0.4660    0.0680    0.0000
  band No.  band energies     occupation 
      1     -14.8313      2.00000
      2     -14.5980      2.00000
      3      -8.2727      2.00000
      4      -7.4272      2.00000
      5      -6.6373      2.00000
      6      -5.7535      2.00000
      7      -4.4495      2.00000
      8      -3.9193      2.00000
      9      -3.0843      2.00000
     10      -0.3820      0.00000
     11       0.1423      0.00000
     12       1.3831      0.00000
     13       1.5101      0.00000
     14       3.6676      0.00000
     15       5.7132      0.00000
     16       5.9022      0.00000

 k-point    12 :       0.4626    0.0748    0.0000
  band No.  band energies     occupation 
      1     -14.8269      2.00000
      2     -14.5950      2.00000
      3      -8.2587      2.00000
      4      -7.4376      2.00000
      5      -6.6327      2.00000
      6      -5.7549      2.00000
      7      -4.4482      2.00000
      8      -3.9791      2.00000
      9      -3.0690      2.00000
     10      -0.3810      0.00000
     11       0.1503      0.00000
     12       1.3775      0.00000
     13       1.4983      0.00000
     14       3.6833      0.00000
     15       5.7800      0.00000
     16       5.9457      0.00000

 k-point    13 :       0.4592    0.0816    0.0000
  band No.  band energies     occupation 
      1     -14.8222      2.00000
      2     -14.5917      2.00000
      3      -8.2434      2.00000
      4      -7.4491      2.00000
      5      -6.6276      2.00000
      6      -5.7560      2.00000
      7      -4.4471      2.00000
      8      -4.0412      2.00000
      9      -3.0545      2.00000
     10      -0.3810      0.00000
     11       0.1598      0.00000
     12       1.3587      0.00000
     13       1.4994      0.00000
     14       3.7002      0.00000
     15       5.8515      0.00000
     16       5.9926      0.00000

 k-point    14 :       0.4558    0.0884    0.0000
  band No.  band energies     occupation 
      1     -14.8171      2.00000
      2     -14.5882      2.00000
      3      -8.2268      2.00000
      4      -7.4614      2.00000
      5      -6.6222      2.00000
      6      -5.7568      2.00000
      7      -4.4464      2.00000
      8      -4.1054      2.00000
      9      -3.0408      2.00000
     10      -0.3820      0.00000
     11       0.1706      0.00000
     12       1.3298      0.00000
     13       1.5106      0.00000
     14       3.7182      0.00000
     15       5.9275      0.00000
     16       6.0424      0.00000

 k-point    15 :       0.4524    0.0952    0.0000
  band No.  band energies     occupation 
      1     -14.8117      2.00000
      2     -14.5845      2.00000
      3      -8.2090      2.00000
      4      -7.4746      2.00000
      5      -6.6165      2.00000
      6      -5.7572      2.00000
      7      -4.4459      2.00000
      8      -4.1714      2.00000
      9      -3.0279      2.00000
     10      -0.3843      0.00000
     11       0.1830      0.00000
     12       1.2951      0.00000
     13       1.5279      0.00000
     14       3.7372      0.00000
     15       6.0069      0.00000
     16       6.0950      0.00000

 k-point    16 :       0.4490    0.1020    0.0000
  band No.  band energies     occupation 
      1     -14.8060      2.00000
      2     -14.5806      2.00000
      3      -8.1899      2.00000
      4      -7.4886      2.00000
      5      -6.6105      2.00000
      6      -5.7572      2.00000
      7      -4.4459      2.00000
      8      -4.2392      2.00000
      9      -3.0155      2.00000
     10      -0.3880      0.00000
     11       0.1970      0.00000
     12       1.2573      0.00000
     13       1.5487      0.00000
     14       3.7571      0.00000
     15       6.0905      0.00000
     16       6.1500      0.00000

 k-point    17 :       0.4456    0.1088    0.0000
  band No.  band energies     occupation 
      1     -14.7999      2.00000
      2     -14.5764      2.00000
      3      -8.1697      2.00000
      4      -7.5033      2.00000
      5      -6.6042      2.00000
      6      -5.7565      2.00000
      7      -4.4464      2.00000
      8      -4.3086      2.00000
      9      -3.0037      2.00000
     10      -0.3931      0.00000
     11       0.2126      0.00000
     12       1.2176      0.00000
     13       1.5720      0.00000
     14       3.7780      0.00000
     15       6.1772      0.00000
     16       6.2072      0.00000

 k-point    18 :       0.4422    0.1156    0.0000
  band No.  band energies     occupation 
      1     -14.7936      2.00000
      2     -14.5721      2.00000
      3      -8.1482      2.00000
      4      -7.5189      2.00000
      5      -6.5977      2.00000
      6      -5.7553      2.00000
      7      -4.4475      2.00000
      8      -4.3793      2.00000
      9      -2.9922      2.00000
     10      -0.3997      0.00000
     11       0.2298      0.00000
     12       1.1769      0.00000
     13       1.5969      0.00000
     14       3.7997      0.00000
     15       6.2656      0.00000
     16       6.2840      0.00000

 k-point    19 :       0.4388    0.1224    0.0000
  band No.  band energies     occupation 
      1     -14.7870      2.00000
      2     -14.5676      2.00000
      3      -8.1255      2.00000
      4      -7.5351      2.00000
      5      -6.5909      2.00000
      6      -5.7535      2.00000
      7      -4.4513      2.00000
      8      -4.4492      2.00000
      9      -2.9811      2.00000
     10      -0.4079      0.00000
     11       0.2484      0.00000
     12       1.1357      0.00000
     13       1.6232      0.00000
     14       3.8222      0.00000
     15       6.3255      0.00000
     16       6.3887      0.00000

 k-point    20 :       0.4354    0.1293    0.0000
  band No.  band energies     occupation 
      1     -14.7802      2.00000
      2     -14.5629      2.00000
      3      -8.1017      2.00000
      4      -7.5519      2.00000
      5      -6.5840      2.00000
      6      -5.7509      2.00000
      7      -4.5244      2.00000
      8      -4.4515      2.00000
      9      -2.9701      2.00000
     10      -0.4176      0.00000
     11       0.2686      0.00000
     12       1.0945      0.00000
     13       1.6506      0.00000
     14       3.8455      0.00000
     15       6.3852      0.00000
     16       6.4663      0.00000

 k-point    21 :       0.4320    0.1361    0.0000
  band No.  band energies     occupation 
      1     -14.7731      2.00000
      2     -14.5581      2.00000
      3      -8.0767      2.00000
      4      -7.5693      2.00000
      5      -6.5769      2.00000
      6      -5.7476      2.00000
      7      -4.5984      2.00000
      8      -4.4546      2.00000
      9      -2.9592      2.00000
     10      -0.4288      0.00000
     11       0.2900      0.00000
     12       1.0535      0.00000
     13       1.6788      0.00000
     14       3.8695      0.00000
     15       6.4442      0.00000
     16       6.5606      0.00000

 k-point    22 :       0.4286    0.1429    0.0000
  band No.  band energies     occupation 
      1     -14.7658      2.00000
      2     -14.5532      2.00000
      3      -8.0506      2.00000
      4      -7.5871      2.00000
      5      -6.5697      2.00000
      6      -5.7436      2.00000
      7      -4.6731      2.00000
      8      -4.4584      2.00000
      9      -2.9484      2.00000
     10      -0.4416      0.00000
     11       0.3128      0.00000
     12       1.0129      0.00000
     13       1.7076      0.00000
     14       3.8943      0.00000
     15       6.5047      0.00000
     16       6.5696      0.00000

 k-point    23 :       0.4252    0.1497    0.0000
  band No.  band energies     occupation 
      1     -14.7583      2.00000
      2     -14.5481      2.00000
      3      -8.0235      2.00000
      4      -7.6054      2.00000
      5      -6.5624      2.00000
      6      -5.7388      2.00000
      7      -4.7485      2.00000
      8      -4.4630      2.00000
      9      -2.9374      2.00000
     10      -0.4557      0.00000
     11       0.3366      0.00000
     12       0.9729      0.00000
     13       1.7369      0.00000
     14       3.9197      0.00000
     15       6.5531      0.00000
     16       6.5798      0.00000

 k-point    24 :       0.4218    0.1565    0.0000
  band No.  band energies     occupation 
      1     -14.7507      2.00000
      2     -14.5430      2.00000
      3      -7.9952      2.00000
      4      -7.6241      2.00000
      5      -6.5550      2.00000
      6      -5.7333      2.00000
      7      -4.8243      2.00000
      8      -4.4685      2.00000
      9      -2.9262      2.00000
     10      -0.4712      0.00000
     11       0.3615      0.00000
     12       0.9338      0.00000
     13       1.7666      0.00000
     14       3.9458      0.00000
     15       6.5940      0.00000
     16       6.5968      0.00000

 k-point    25 :       0.4184    0.1633    0.0000
  band No.  band energies     occupation 
      1     -14.7429      2.00000
      2     -14.5377      2.00000
      3      -7.9659      2.00000
      4      -7.6430      2.00000
      5      -6.5477      2.00000
      6      -5.7269      2.00000
      7      -4.9005      2.00000
      8      -4.4747      2.00000
      9      -2.9148      2.00000
     10      -0.4880      0.00000
     11       0.3872      0.00000
     12       0.8957      0.00000
     13       1.7965      0.00000
     14       3.9725      0.00000
     15       6.6134      0.00000
     16       6.6230      0.00000

 k-point    26 :       0.4150    0.1701    0.0000
  band No.  band energies     occupation 
      1     -14.7351      2.00000
      2     -14.5325      2.00000
      3      -7.9357      2.00000
      4      -7.6621      2.00000
      5      -6.5404      2.00000
      6      -5.7198      2.00000
      7      -4.9767      2.00000
      8      -4.4819      2.00000
      9      -2.9031      2.00000
     10      -0.5060      0.00000
     11       0.4137      0.00000
     12       0.8588      0.00000
     13       1.8264      0.00000
     14       3.9998      0.00000
     15       6.5952      0.00000
     16       6.6337      0.00000

 k-point    27 :       0.4116    0.1769    0.0000
  band No.  band energies     occupation 
      1     -14.7271      2.00000
      2     -14.5271      2.00000
      3      -7.9044      2.00000
      4      -7.6813      2.00000
      5      -6.5333      2.00000
      6      -5.7119      2.00000
      7      -5.0530      2.00000
      8      -4.4898      2.00000
      9      -2.8910      2.00000
     10      -0.5250      0.00000
     11       0.4408      0.00000
     12       0.8231      0.00000
     13       1.8561      0.00000
     14       4.0277      0.00000
     15       6.5373      0.00000
     16       6.6531      0.00000

 k-point    28 :       0.4082    0.1837    0.0000
  band No.  band energies     occupation 
      1     -14.7191      2.00000
      2     -14.5218      2.00000
      3      -7.8722      2.00000
      4      -7.7005      2.00000
      5      -6.5262      2.00000
      6      -5.7033      2.00000
      7      -5.1290      2.00000
      8      -4.4986      2.00000
      9      -2.8786      2.00000
     10      -0.5451      0.00000
     11       0.4684      0.00000
     12       0.7887      0.00000
     13       1.8857      0.00000
     14       4.0562      0.00000
     15       6.4634      0.00000
     16       6.6716      0.00000

 k-point    29 :       0.4048    0.1905    0.0000
  band No.  band energies     occupation 
      1     -14.7111      2.00000
      2     -14.5165      2.00000
      3      -7.8392      2.00000
      4      -7.7197      2.00000
      5      -6.5195      2.00000
      6      -5.6940      2.00000
      7      -5.2047      2.00000
      8      -4.5083      2.00000
      9      -2.8657      2.00000
     10      -0.5660      0.00000
     11       0.4963      0.00000
     12       0.7558      0.00000
     13       1.9148      0.00000
     14       4.0853      0.00000
     15       6.3837      0.00000
     16       6.6915      0.00000

 k-point    30 :       0.4014    0.1973    0.0000
  band No.  band energies     occupation 
      1     -14.7031      2.00000
      2     -14.5111      2.00000
      3      -7.8052      2.00000
      4      -7.7388      2.00000
      5      -6.5130      2.00000
      6      -5.6839      2.00000
      7      -5.2798      2.00000
      8      -4.5187      2.00000
      9      -2.8523      2.00000
     10      -0.5877      0.00000
     11       0.5244      0.00000
     12       0.7244      0.00000
     13       1.9435      0.00000
     14       4.1148      0.00000
     15       6.3005      0.00000
     16       6.7130      0.00000

 k-point    31 :       0.3980    0.2041    0.0000
  band No.  band energies     occupation 
      1     -14.6951      2.00000
      2     -14.5059      2.00000
      3      -7.7705      2.00000
      4      -7.7576      2.00000
      5      -6.5069      2.00000
      6      -5.6733      2.00000
      7      -5.3541      2.00000
      8      -4.5299      2.00000
      9      -2.8385      2.00000
     10      -0.6100      0.00000
     11       0.5526      0.00000
     12       0.6946      0.00000
     13       1.9715      0.00000
     14       4.1449      0.00000
     15       6.2156      0.00000
     16       6.7337      0.00000

 k-point    32 :       0.3946    0.2109    0.0000
  band No.  band energies     occupation 
      1     -14.6872      2.00000
      2     -14.5007      2.00000
      3      -7.7761      2.00000
      4      -7.7350      2.00000
      5      -6.5013      2.00000
      6      -5.6620      2.00000
      7      -5.4275      2.00000
      8      -4.5418      2.00000
      9      -2.8243      2.00000
     10      -0.6328      0.00000
     11       0.5807      0.00000
     12       0.6664      0.00000
     13       1.9988      0.00000
     14       4.1755      0.00000
     15       6.1305      0.00000
     16       6.7552      0.00000

 k-point    33 :       0.3912    0.2177    0.0000
  band No.  band energies     occupation 
      1     -14.6795      2.00000
      2     -14.4956      2.00000
      3      -7.7942      2.00000
      4      -7.6988      2.00000
      5      -6.4963      2.00000
      6      -5.6503      2.00000
      7      -5.4997      2.00000
      8      -4.5544      2.00000
      9      -2.8097      2.00000
     10      -0.6561      0.00000
     11       0.6086      0.00000
     12       0.6399      0.00000
     13       2.0251      0.00000
     14       4.2064      0.00000
     15       6.0456      0.00000
     16       6.7774      0.00000

 k-point    34 :       0.3878    0.2245    0.0000
  band No.  band energies     occupation 
      1     -14.6718      2.00000
      2     -14.4906      2.00000
      3      -7.8118      2.00000
      4      -7.6619      2.00000
      5      -6.4921      2.00000
      6      -5.6380      2.00000
      7      -5.5704      2.00000
      8      -4.5676      2.00000
      9      -2.7947      2.00000
     10      -0.6796      0.00000
     11       0.6152      0.00000
     12       0.6361      0.00000
     13       2.0505      0.00000
     14       4.2378      0.00000
     15       5.9617      0.00000
     16       6.7999      0.00000

 k-point    35 :       0.3844    0.2313    0.0000
  band No.  band energies     occupation 
      1     -14.6643      2.00000
      2     -14.4857      2.00000
      3      -7.8289      2.00000
      4      -7.6245      2.00000
      5      -6.4889      2.00000
      6      -5.6392      2.00000
      7      -5.6254      2.00000
      8      -4.5813      2.00000
      9      -2.7794      2.00000
     10      -0.7032      0.00000
     11       0.5921      0.00000
     12       0.6632      0.00000
     13       2.0748      0.00000
     14       4.2696      0.00000
     15       5.8790      0.00000
     16       6.8225      0.00000

[...]
      7      -4.2484      2.00000
      8      -3.8818      2.00000
      9      -3.5649      2.00000
     10      -0.4142      0.00000
     11      -0.2428      0.00000
     12       0.8799      0.00000
     13       1.5004      0.00000
     14       4.6841      0.00000
     15       5.0136      0.00000
     16       5.1945      0.00000

 k-point   136 :       0.3571    0.0000    0.0000
  band No.  band energies     occupation 
      1     -15.2741      2.00000
      2     -14.7972      2.00000
      3      -7.9215      2.00000
      4      -6.9053      2.00000
      5      -6.5085      2.00000
      6      -5.5052      2.00000
      7      -4.2763      2.00000
      8      -3.8393      2.00000
      9      -3.5539      2.00000
     10      -0.4200      0.00000
     11      -0.2119      0.00000
     12       0.9347      0.00000
     13       1.5245      0.00000
     14       4.6797      0.00000
     15       5.0828      0.00000
     16       5.1408      0.00000

 k-point   137 :       0.3673    0.0000    0.0000
  band No.  band energies     occupation 
      1     -15.2227      2.00000
      2     -14.7742      2.00000
      3      -7.9703      2.00000
      4      -6.9658      2.00000
      5      -6.5190      2.00000
      6      -5.5371      2.00000
      7      -4.3022      2.00000
      8      -3.7992      2.00000
      9      -3.5368      2.00000
     10      -0.4239      0.00000
     11      -0.1803      0.00000
     12       0.9867      0.00000
     13       1.5467      0.00000
     14       4.6223      0.00000
     15       5.1377      0.00000
     16       5.1422      0.00000

 k-point   138 :       0.3776    0.0000    0.0000
  band No.  band energies     occupation 
      1     -15.1734      2.00000
      2     -14.7523      2.00000
      3      -8.0179      2.00000
      4      -7.0230      2.00000
      5      -6.5311      2.00000
      6      -5.5668      2.00000
      7      -4.3261      2.00000
      8      -3.7617      2.00000
      9      -3.5145      2.00000
     10      -0.4259      0.00000
     11      -0.1482      0.00000
     12       1.0354      0.00000
     13       1.5669      0.00000
     14       4.5271      0.00000
     15       5.1718      0.00000
     16       5.1908      0.00000

 k-point   139 :       0.3878    0.0000    0.0000
  band No.  band energies     occupation 
      1     -15.1265      2.00000
      2     -14.7316      2.00000
      3      -8.0638      2.00000
      4      -7.0767      2.00000
      5      -6.5447      2.00000
      6      -5.5943      2.00000
      7      -4.3479      2.00000
      8      -3.7270      2.00000
      9      -3.4880      2.00000
     10      -0.4264      0.00000
     11      -0.1162      0.00000
     12       1.0807      0.00000
     13       1.5853      0.00000
     14       4.4147      0.00000
     15       5.2238      0.00000
     16       5.2292      0.00000

 k-point   140 :       0.3980    0.0000    0.0000
  band No.  band energies     occupation 
      1     -15.0823      2.00000
      2     -14.7122      2.00000
      3      -8.1076      2.00000
      4      -7.1265      2.00000
      5      -6.5593      2.00000
      6      -5.6195      2.00000
      7      -4.3678      2.00000
      8      -3.6951      2.00000
      9      -3.4583      2.00000
     10      -0.4255      0.00000
     11      -0.0844      0.00000
     12       1.1224      0.00000
     13       1.6018      0.00000
     14       4.2971      0.00000
     15       5.2586      0.00000
     16       5.2829      0.00000

 k-point   141 :       0.4082    0.0000    0.0000
  band No.  band energies     occupation 
      1     -15.0413      2.00000
      2     -14.6942      2.00000
      3      -8.1486      2.00000
      4      -7.1724      2.00000
      5      -6.5743      2.00000
      6      -5.6425      2.00000
      7      -4.3857      2.00000
      8      -3.6661      2.00000
      9      -3.4268      2.00000
     10      -0.4235      0.00000
     11      -0.0534      0.00000
     12       1.1601      0.00000
     13       1.6166      0.00000
     14       4.1807      0.00000
     15       5.2814      0.00000
     16       5.3439      0.00000

 k-point   142 :       0.4184    0.0000    0.0000
  band No.  band energies     occupation 
      1     -15.0035      2.00000
      2     -14.6778      2.00000
      3      -8.1865      2.00000
      4      -7.2141      2.00000
      5      -6.5894      2.00000
      6      -5.6631      2.00000
      7      -4.4016      2.00000
      8      -3.6401      2.00000
      9      -3.3945      2.00000
     10      -0.4207      0.00000
     11      -0.0235      0.00000
     12       1.1940      0.00000
     13       1.6296      0.00000
     14       4.0693      0.00000
     15       5.2995      0.00000
     16       5.4041      0.00000

 k-point   143 :       0.4286    0.0000    0.0000
  band No.  band energies     occupation 
      1     -14.9695      2.00000
      2     -14.6630      2.00000
      3      -8.2210      2.00000
      4      -7.2514      2.00000
      5      -6.6040      2.00000
      6      -5.6814      2.00000
      7      -4.4155      2.00000
      8      -3.6171      2.00000
      9      -3.3627      2.00000
     10      -0.4173      0.00000
     11       0.0047      0.00000
     12       1.2238      0.00000
     13       1.6410      0.00000
     14       3.9654      0.00000
     15       5.3146      0.00000
     16       5.4615      0.00000

 k-point   144 :       0.4388    0.0000    0.0000
  band No.  band energies     occupation 
      1     -14.9393      2.00000
      2     -14.6499      2.00000
      3      -8.2516      2.00000
      4      -7.2841      2.00000
      5      -6.6177      2.00000
      6      -5.6973      2.00000
      7      -4.4275      2.00000
      8      -3.5972      2.00000
      9      -3.3325      2.00000
     10      -0.4137      0.00000
     11       0.0308      0.00000
     12       1.2495      0.00000
     13       1.6508      0.00000
     14       3.8710      0.00000
     15       5.3277      0.00000
     16       5.5150      0.00000

 k-point   145 :       0.4490    0.0000    0.0000
  band No.  band energies     occupation 
      1     -14.9133      2.00000
      2     -14.6387      2.00000
      3      -8.2780      2.00000
      4      -7.3120      2.00000
      5      -6.6300      2.00000
      6      -5.7107      2.00000
      7      -4.4376      2.00000
      8      -3.5803      2.00000
      9      -3.3049      2.00000
     10      -0.4102      0.00000
     11       0.0541      0.00000
     12       1.2712      0.00000
     13       1.6589      0.00000
     14       3.7880      0.00000
     15       5.3393      0.00000
     16       5.5632      0.00000

 k-point   146 :       0.4592    0.0000    0.0000
  band No.  band energies     occupation 
      1     -14.8917      2.00000
      2     -14.6295      2.00000
      3      -8.3000      2.00000
      4      -7.3350      2.00000
      5      -6.6406      2.00000
      6      -5.7218      2.00000
      7      -4.4458      2.00000
      8      -3.5665      2.00000
      9      -3.2810      2.00000
     10      -0.4069      0.00000
     11       0.0743      0.00000
     12       1.2889      0.00000
     13       1.6656      0.00000
     14       3.7178      0.00000
     15       5.3494      0.00000
     16       5.6049      0.00000

 k-point   147 :       0.4694    0.0000    0.0000
  band No.  band energies     occupation 
      1     -14.8747      2.00000
      2     -14.6222      2.00000
      3      -8.3174      2.00000
      4      -7.3531      2.00000
      5      -6.6491      2.00000
      6      -5.7304      2.00000
      7      -4.4522      2.00000
      8      -3.5558      2.00000
      9      -3.2615      2.00000
     10      -0.4041      0.00000
     11       0.0906      0.00000
     12       1.3026      0.00000
     13       1.6707      0.00000
     14       3.6617      0.00000
     15       5.3578      0.00000
     16       5.6390      0.00000

 k-point   148 :       0.4796    0.0000    0.0000
  band No.  band energies     occupation 
      1     -14.8625      2.00000
      2     -14.6169      2.00000
      3      -8.3299      2.00000
      4      -7.3660      2.00000
      5      -6.6554      2.00000
      6      -5.7366      2.00000
      7      -4.4567      2.00000
      8      -3.5481      2.00000
      9      -3.2471      2.00000
     10      -0.4019      0.00000
     11       0.1026      0.00000
     12       1.3123      0.00000
     13       1.6743      0.00000
     14       3.6208      0.00000
     15       5.3642      0.00000
     16       5.6643      0.00000

 k-point   149 :       0.4898    0.0000    0.0000
  band No.  band energies     occupation 
      1     -14.8551      2.00000
      2     -14.6138      2.00000
      3      -8.3375      2.00000
      4      -7.3738      2.00000
      5      -6.6592      2.00000
      6      -5.7403      2.00000
      7      -4.4594      2.00000
      8      -3.5436      2.00000
      9      -3.2383      2.00000
     10      -0.4006      0.00000
     11       0.1100      0.00000
     12       1.3181      0.00000
     13       1.6765      0.00000
     14       3.5960      0.00000
     15       5.3681      0.00000
     16       5.6799      0.00000

 k-point   150 :       0.5000    0.0000    0.0000
  band No.  band energies     occupation 
      1     -14.8526      2.00000
      2     -14.6127      2.00000
      3      -8.3400      2.00000
      4      -7.3764      2.00000
      5      -6.6605      2.00000
      6      -5.7415      2.00000
      7      -4.4603      2.00000
      8      -3.5420      2.00000
      9      -3.2353      2.00000
     10      -0.4002      0.00000
     11       0.1125      0.00000
     12       1.3200      0.00000
     13       1.6772      0.00000
     14       3.5876      0.00000
     15       5.3695      0.00000
     16       5.6852      0.00000


--------------------------------------------------------------------------------------------------------


 soft charge-density along one line, spin component           1
         0         1         2         3         4         5         6         7         8         9
 total charge-density along one line
 
 pseudopotential strength for first ion, spin component:           1
 -9.760   0.000  -0.000   0.000  -0.000  -9.946   0.000  -0.000
  0.000  -9.753   0.000   0.000   0.000   0.000  -9.939   0.000
 -0.000   0.000  -9.747   0.000  -0.000  -0.000   0.000  -9.933
  0.000   0.000   0.000  -9.753   0.000   0.000   0.000   0.000
 -0.000   0.000  -0.000   0.000  -9.760  -0.000   0.000  -0.000
 -9.946   0.000  -0.000   0.000  -0.000 -10.122   0.000  -0.000
  0.000  -9.939   0.000   0.000   0.000   0.000 -10.115   0.000
 -0.000   0.000  -9.933   0.000  -0.000  -0.000   0.000 -10.109
  0.000   0.000   0.000  -9.939   0.000   0.000   0.000   0.000
 -0.000   0.000  -0.000   0.000  -9.946  -0.000   0.000  -0.000
 -0.000  -0.000  -0.004  -0.000   0.000  -0.000  -0.000  -0.005
 -0.000  -0.000  -0.009  -0.000   0.000  -0.000  -0.000  -0.009
 -0.000  -0.000  -0.000  -0.000   0.004  -0.000  -0.000  -0.000
 -0.000   0.000  -0.000   0.000  -0.000  -0.000   0.000  -0.000
  0.004  -0.000   0.000  -0.000  -0.000   0.004  -0.000   0.000
  0.000  -0.000  -0.000  -0.000   0.005   0.000  -0.000  -0.000
 -0.000   0.000  -0.000   0.000  -0.000  -0.000   0.000  -0.000
  0.005  -0.000  -0.000  -0.000   0.000   0.005  -0.000  -0.000
 total augmentation occupancy for first ion, spin component:           1
  1.000   0.000   0.000   0.000   0.000   0.000   0.000   0.000   0.000   0.000   0.000   0.000   0.000   0.000   0.000   0.000
  0.000   1.000   0.000   0.000   0.000   0.000   0.000   0.000   0.000   0.000   0.000   0.000   0.000   0.000   0.000   0.000
  0.000   0.000   1.000   0.000   0.000   0.000   0.000   0.000   0.000   0.000   0.000   0.000   0.000   0.000   0.000   0.000
  0.000   0.000   0.000   1.000   0.000   0.000   0.000   0.000   0.000   0.000   0.000   0.000   0.000   0.000   0.000   0.000
  0.000   0.000   0.000   0.000   1.000   0.000   0.000   0.000   0.000   0.000   0.000   0.000   0.000   0.000   0.000   0.000
  0.000   0.000   0.000   0.000   0.000   0.000   0.000   0.000   0.000   0.000   0.000   0.000   0.000   0.000   0.000   0.000
  0.000   0.000   0.000   0.000   0.000   0.000   0.000   0.000   0.000   0.000   0.000   0.000   0.000   0.000   0.000   0.000
  0.000   0.000   0.000   0.000   0.000   0.000   0.000   0.000   0.000   0.000   0.000   0.000   0.000   0.000   0.000   0.000
  0.000   0.000   0.000   0.000   0.000   0.000   0.000   0.000   0.000   0.000   0.000   0.000   0.000   0.000   0.000   0.000
  0.000   0.000   0.000   0.000   0.000   0.000   0.000   0.000   0.000   0.000   0.000   0.000   0.000   0.000   0.000   0.000
  0.000   0.000   0.000   0.000   0.000   0.000   0.000   0.000   0.000   0.000   1.000   0.000   0.000   0.000   0.000   0.000
  0.000   0.000   0.000   0.000   0.000   0.000   0.000   0.000   0.000   0.000   0.000   0.000   0.000   0.000   0.000   0.000
  0.000   0.000   0.000   0.000   0.000   0.000   0.000   0.000   0.000   0.000   0.000   0.000   0.000   0.000   0.000   0.000
  0.000   0.000   0.000   0.000   0.000   0.000   0.000   0.000   0.000   0.000   0.000   0.000   0.000   0.000   0.000   0.000
  0.000   0.000   0.000   0.000   0.000   0.000   0.000   0.000   0.000   0.000   0.000   0.000   0.000   0.000   0.000   0.000
  0.000   0.000   0.000   0.000   0.000   0.000   0.000   0.000   0.000   0.000   0.000   0.000   0.000   0.000   0.000   0.000
  0.000   0.000   0.000   0.000   0.000   0.000   0.000   0.000   0.000   0.000   0.000   0.000   0.000   0.000   0.000   0.000
  0.000   0.000   0.000   0.000   0.000   0.000   0.000   0.000   0.000   0.000   0.000   0.000   0.000   0.000   0.000   0.000


------------------------ aborting loop because EDIFF is reached ----------------------------------------


 


 total charge     
 
# of ion       s       p       d       tot
------------------------------------------
    1        0.410   0.582   4.518   5.511
    2        1.356   2.302   0.000   3.658
    3        1.356   2.302   0.000   3.658
--------------------------------------------------
tot          3.122   5.186   4.518  12.827
 
    CHARGE:  cpu time    0.0628: real time    0.0673
    FORLOC:  cpu time    0.0006: real time    0.0015
    FORNL :  cpu time    0.1642: real time    0.1670
    STRESS:  cpu time    0.7585: real time    0.7609
    FORCOR:  cpu time    0.0173: real time    0.0182
    FORHAR:  cpu time    0.0025: real time    0.0046
    OFIELD:  cpu time    0.0002: real time    0.0004

  FORCE on cell =-STRESS in cart. coord.  units (eV):
  Direction    XX          YY          ZZ          XY          YZ          ZX
  --------------------------------------------------------------------------------------
  Alpha Z    16.67021    16.67021    16.67021
  Ewald    3104.00592  3103.99999 -3671.98698     0.00480    -0.00007    -0.00001
  Hartree  3213.88868  3214.35598 -3175.84318    -0.40467     0.00001    -0.00000
  E(xc)     -69.74910   -70.81970   -70.92049     0.92717     0.00000     0.00000
  Local   -6597.14916 -6603.61169  6557.67336     5.59671    -0.00007    -0.00003
  n-local   123.40751   123.05359   129.61310    -0.12314    -0.00005    -0.00013
  augment   -24.96216   -24.53813   -26.24026    -0.36708    -0.00000     0.00000
  Kinetic   234.93733   239.42147   241.99233    -6.26438     0.00004     0.00006
  Fock        0.00000     0.00000     0.00000     0.00000     0.00000     0.00000
  -------------------------------------------------------------------------------------
  Total      -0.16749    -0.25157     0.95810     0.07282     0.00000     0.00000
  in kB      -1.50875    -2.26617     8.63071     0.65594     0.00000     0.00000
  external pressure =        1.62 kB  Pullay stress =        0.00 kB


 VOLUME and BASIS-vectors are now :
 -----------------------------------------------------------------------------
  energy-cutoff  :      500.00
  volume of cell :      177.86
      direct lattice vectors                 reciprocal lattice vectors
     3.183059931  0.000000000  0.000000000     0.314163108  0.181382155 -0.000000139
    -1.591529965  2.756610762  0.000000000     0.000000000  0.362764310 -0.000000195
     0.000002699  0.000010908 20.269968033     0.000000000  0.000000000  0.049334069

  length of vectors
     3.183059931  3.183059931 20.269968033     0.362764310  0.362764310  0.049334069


 FORCES acting on ions
    electron-ion (+dipol)            ewald-force                    non-local-force                 convergence-correction
 -----------------------------------------------------------------------------------------------
   -.328E+00 -.189E+00 -.261E-04   -.235E-02 -.145E-02 -.480E-03   -.351E-01 -.203E-01 0.000E+00   0.883E-01 0.509E-01 0.881E-03
   0.151E+01 0.875E+00 0.543E+03   0.118E-02 0.747E-03 -.544E+03   -.423E+00 -.244E+00 0.382E+01   -.875E+00 -.505E+00 -.203E+01
   0.151E+01 0.875E+00 -.543E+03   0.117E-02 0.702E-03 0.544E+03   -.423E+00 -.244E+00 -.382E+01   -.875E+00 -.505E+00 0.203E+01
 -----------------------------------------------------------------------------------------------
   0.270E+01 0.156E+01 -.172E-01   -.355E-14 0.694E-15 -.114E-12   -.882E+00 -.509E+00 0.000E+00   -.166E+01 -.959E+00 0.256E-02
 
 
 POSITION                                       TOTAL-FORCE (eV/Angst)
 -----------------------------------------------------------------------------------
      1.59156      0.91884      3.40159        -0.329822     -0.190423     -0.000000
     -0.00001      1.83768      1.83804         0.164911      0.095211     -0.086132
     -0.00001      1.83769      4.96515         0.164911      0.095212      0.086132
 -----------------------------------------------------------------------------------
    total drift:                                0.156684      0.092181     -0.014616


--------------------------------------------------------------------------------------------------------



  FREE ENERGIE OF THE ION-ELECTRON SYSTEM (eV)
  ---------------------------------------------------
  free  energy   TOTEN  =       -21.49256830 eV

  energy  without entropy=      -21.49256830  energy(sigma->0) =      -21.49256830
 


--------------------------------------------------------------------------------------------------------


    POTLOK:  cpu time    0.0283: real time    0.0292


--------------------------------------------------------------------------------------------------------


     LOOP+:  cpu time   12.8310: real time   12.9158
    4ORBIT:  cpu time    0.0000: real time    0.0000
 


 total charge     
 
# of ion       s       p       d       tot
------------------------------------------
    1        0.410   0.582   4.518   5.511
    2        1.356   2.302   0.000   3.658
    3        1.356   2.302   0.000   3.658
--------------------------------------------------
tot          3.122   5.186   4.518  12.827
 

 total amount of memory used by VASP MPI-rank0    67127. kBytes
=======================================================================

   base      :      30000. kBytes
   nonl-proj :      28716. kBytes
   fftplans  :        679. kBytes
   grid      :       1151. kBytes
   one-center:         15. kBytes
   wavefun   :       6566. kBytes
 
  
  
 General timing and accounting informations for this job:
 ========================================================
  
                  Total CPU time used (sec):       16.417
                            User time (sec):       14.637
                          System time (sec):        1.780
                         Elapsed time (sec):       16.615
  
                   Maximum memory used (kb):       97796.
                   Average memory used (kb):           0.
  
                          Minor page faults:        19754
                          Major page faults:            0
                 Voluntary context switches:         1027
