 vasp.5.4.4.18Apr17-6-g9f103f2a35 (build May 24 2018 15:12:59) complex          
  
 executed on             LinuxIFC date 2018.11.27  15:31:36
 running on   28 total cores
 distrk:  each k-point on   28 cores,    1 groups
 distr:  one band on NCORES_PER_BAND=   7 cores,    4 groups


--------------------------------------------------------------------------------------------------------


 INCAR:
 POTCAR:    PAW_PBE Mo 08Apr2002                  
 POTCAR:    PAW_PBE S 06Sep2000                   
 POTCAR:    PAW_PBE Mo 08Apr2002                  
   VRHFIN =Mo: 4p5s4d                                                           
   LEXCH  = PE                                                                  
   EATOM  =   217.5176 eV,   15.9871 Ry                                         
                                                                                
   TITEL  = PAW_PBE Mo 08Apr2002                                                
   LULTRA =        F    use ultrasoft PP ?                                      
   IUNSCR =        1    unscreen: 0-lin 1-nonlin 2-no                           
   RPACOR =    2.200    partial core radius                                     
   POMASS =   95.940; ZVAL   =    6.000    mass and valenz                      
   RCORE  =    2.750    outmost cutoff radius                                   
   RWIGS  =    2.750; RWIGS  =    1.455    wigner-seitz radius (au A)           
   ENMAX  =  224.584; ENMIN  =  168.438 eV                                      
   RCLOC  =    2.111    cutoff for local pot                                    
   LCOR   =        T    correct aug charges                                     
   LPAW   =        T    paw PP                                                  
   EAUG   =  345.278                                                            
   DEXC   =    0.000                                                            
   RMAX   =    2.821    core radius for proj-oper                               
   RAUG   =    1.300    factor for augmentation sphere                          
   RDEP   =    2.815    radius for radial grids                                 
   RDEPT  =    2.211    core radius for aug-charge                              
                                                                                
   Atomic configuration                                                         
   12 entries                                                                   
     n  l   j            E        occ.                                          
     1  0  0.50    -19819.0341   2.0000                                         
     2  0  0.50     -2799.0127   2.0000                                         
     2  1  1.50     -2502.0276   6.0000                                         
     3  0  0.50      -476.4448   2.0000                                         
     3  1  1.50      -379.1496   6.0000                                         
     3  2  2.50      -220.9367  10.0000                                         
     4  0  0.50       -64.3378   2.0000                                         
     4  1  1.50       -38.4773   6.0000                                         
     4  2  2.50        -3.7535   5.0000                                         
     5  0  0.50        -4.0862   1.0000                                         
     5  1  0.50        -2.7701   0.0000                                         
     4  3  2.50        -1.3606   0.0000                                         
   Description                                                                  
     l       E           TYP  RCUT    TYP  RCUT                                 
     2     -3.7534765     23  2.500                                             
     2     -5.1140591     23  2.500                                             
     0     -4.0861560     23  2.600                                             
     0     13.6058260     23  2.600                                             
     1      5.4423304     23  2.750                                             
     1     27.2116520     23  2.750                                             
  local pseudopotential read in
  partial core-charges read in
  partial kinetic energy density read in
  atomic valenz-charges read in
  non local Contribution for L=           2  read in
    real space projection operators read in
  non local Contribution for L=           2  read in
    real space projection operators read in
  non local Contribution for L=           0  read in
    real space projection operators read in
  non local Contribution for L=           0  read in
    real space projection operators read in
  non local Contribution for L=           1  read in
    real space projection operators read in
  non local Contribution for L=           1  read in
    real space projection operators read in
    PAW grid and wavefunctions read in
 
   number of l-projection  operators is LMAX  =           6
   number of lm-projection operators is LMMAX =          18
 
 POTCAR:    PAW_PBE S 06Sep2000                   
   VRHFIN =S : s2p4                                                             
   LEXCH  = PE                                                                  
   EATOM  =   276.8230 eV,   20.3459 Ry                                         
                                                                                
   TITEL  = PAW_PBE S 06Sep2000                                                 
   LULTRA =        F    use ultrasoft PP ?                                      
   IUNSCR =        1    unscreen: 0-lin 1-nonlin 2-no                           
   RPACOR =    1.500    partial core radius                                     
   POMASS =   32.066; ZVAL   =    6.000    mass and valenz                      
   RCORE  =    1.900    outmost cutoff radius                                   
   RWIGS  =    2.200; RWIGS  =    1.164    wigner-seitz radius (au A)           
   ENMAX  =  258.689; ENMIN  =  194.016 eV                                      
   ICORE  =        2    local potential                                         
   LCOR   =        T    correct aug charges                                     
   LPAW   =        T    paw PP                                                  
   EAUG   =  335.092                                                            
   DEXC   =    0.000                                                            
   RMAX   =    1.942    core radius for proj-oper                               
   RAUG   =    1.300    factor for augmentation sphere                          
   RDEP   =    1.954    radius for radial grids                                 
   RDEPT  =    1.744    core radius for aug-charge                              
                                                                                
   Atomic configuration                                                         
    6 entries                                                                   
     n  l   j            E        occ.                                          
     1  0  0.50     -2405.8406   2.0000                                         
     2  0  0.50      -211.7007   2.0000                                         
     2  1  1.50      -156.4958   6.0000                                         
     3  0  0.50       -17.2562   2.0000                                         
     3  1  0.50        -7.0085   4.0000                                         
     3  2  1.50        -6.8029   0.0000                                         
   Description                                                                  
     l       E           TYP  RCUT    TYP  RCUT                                 
     0    -17.2561641     23  1.900                                             
     0    -15.8743224     23  1.900                                             
     1     -7.0085400     23  1.900                                             
     1     -2.7779785     23  1.900                                             
     2     -6.8029130     23  1.900                                             
  local pseudopotential read in
  partial core-charges read in
  partial kinetic energy density read in
  atomic valenz-charges read in
  non local Contribution for L=           0  read in
    real space projection operators read in
  non local Contribution for L=           0  read in
    real space projection operators read in
  non local Contribution for L=           1  read in
    real space projection operators read in
  non local Contribution for L=           1  read in
    real space projection operators read in
    PAW grid and wavefunctions read in
 
   number of l-projection  operators is LMAX  =           4
   number of lm-projection operators is LMMAX =           8
 
  PAW_PBE Mo 08Apr2002                  :
 energy of atom  1       EATOM= -217.5176
 kinetic energy error for atom=    0.0017 (will be added to EATOM!!)
  PAW_PBE S 06Sep2000                   :
 energy of atom  2       EATOM= -276.8230
 kinetic energy error for atom=    0.0020 (will be added to EATOM!!)
 
 
 POSCAR: Mo1S2                                   
  positions in direct lattice
  velocities in cartesian coordinates
 exchange correlation table for  LEXCH =        8
   RHO(1)=    0.500       N(1)  =     2000
   RHO(2)=  100.500       N(2)  =     4000
 


--------------------------------------------------------------------------------------------------------


 ion  position               nearest neighbor table
   1  0.667  0.333  0.168-   2 2.41   3 2.41   2 2.41   2 2.41   3 2.41   3 2.41
   2  0.333  0.667  0.091-   1 2.41   1 2.41   1 2.41
   3  0.333  0.667  0.245-   1 2.41   1 2.41   1 2.41
 
  LATTYP: Found a hexagonal cell.
 ALAT       =     3.1830599308
 C/A-ratio  =     6.3680761512
  
  Lattice vectors:
  
 A1 = (   3.1830599308,   0.0000000000,   0.0000000000)
 A2 = (  -1.5915299654,   2.7566107618,   0.0000000000)
 A3 = (   0.0000026991,   0.0000109083,  20.2699680328)


Analysis of symmetry for initial positions (statically):
=====================================================================
 Subroutine PRICEL returns:
 Original cell was already a primitive cell.
 

 Routine SETGRP: Setting up the symmetry group for a 
 hexagonal supercell.


 Subroutine GETGRP returns: Found  4 space group operations
 (whereof  1 operations were pure point group operations)
 out of a pool of 24 trial point group operations.


The static configuration has the point symmetry C_1 .
 The point group associated with its full space group is C_2v.


Analysis of symmetry for dynamics (positions and initial velocities):
=====================================================================
 Subroutine PRICEL returns:
 Original cell was already a primitive cell.
 

 Routine SETGRP: Setting up the symmetry group for a 
 hexagonal supercell.


 Subroutine GETGRP returns: Found  4 space group operations
 (whereof  1 operations were pure point group operations)
 out of a pool of 24 trial point group operations.


The dynamic configuration has the point symmetry C_1 .
 The point group associated with its full space group is C_2v.


 Subroutine INISYM returns: Found  4 space group operations
 (whereof  1 operations are pure point group operations),
 and found     1 'primitive' translations

 
 
 KPOINTS: K-Points                                

Automatic generation of k-mesh.
Space group operators:
 irot       det(A)        alpha          n_x          n_y          n_z        tau_x        tau_y        tau_z
    1     1.000000     0.000000     1.000000     0.000000     0.000000     0.000000     0.000000     0.000000
    2    -1.000000   180.000000     0.000000     0.000000     1.000000     0.000000     0.000000     0.335628
    3    -1.000000   180.000000    -0.500000     0.866025    -0.000000     0.000000     0.999974     0.000000
    4     1.000000   180.000000    -0.866025    -0.500000     0.000000    -0.000000     0.999974     0.335628
 
 Subroutine IBZKPT returns following result:
 ===========================================
 
 Found    111 irreducible k-points:
 
 Following reciprocal coordinates:
            Coordinates               Weight
  0.000000  0.000000  0.000000      1.000000
  0.050000 -0.000000 -0.000000      2.000000
  0.100000 -0.000000 -0.000000      2.000000
  0.150000  0.000000 -0.000000      2.000000
  0.200000  0.000000  0.000000      2.000000
  0.250000  0.000000 -0.000000      2.000000
  0.300000  0.000000  0.000000      2.000000
  0.350000  0.000000 -0.000000      2.000000
  0.400000  0.000000  0.000000      2.000000
  0.450000  0.000000  0.000000      2.000000
  0.500000  0.000000 -0.000000      1.000000
  0.000000  0.050000  0.000000      4.000000
  0.050000  0.050000 -0.000000      4.000000
  0.100000  0.050000 -0.000000      4.000000
  0.150000  0.050000 -0.000000      4.000000
  0.200000  0.050000  0.000000      4.000000
  0.250000  0.050000 -0.000000      4.000000
  0.300000  0.050000  0.000000      4.000000
  0.350000  0.050000 -0.000000      4.000000
  0.400000  0.050000  0.000000      4.000000
  0.450000  0.050000  0.000000      4.000000
  0.000000  0.100000  0.000000      4.000000
  0.050000  0.100000  0.000000      4.000000
  0.100000  0.100000 -0.000000      4.000000
  0.150000  0.100000  0.000000      4.000000
  0.200000  0.100000  0.000000      4.000000
  0.250000  0.100000  0.000000      4.000000
  0.300000  0.100000 -0.000000      4.000000
  0.350000  0.100000 -0.000000      4.000000
  0.400000  0.100000  0.000000      4.000000
  0.450000  0.100000  0.000000      2.000000
 -0.050000  0.100000  0.000000      2.000000
  0.000000  0.150000 -0.000000      4.000000
  0.050000  0.150000 -0.000000      4.000000
  0.100000  0.150000 -0.000000      4.000000
  0.150000  0.150000  0.000000      4.000000
  0.200000  0.150000 -0.000000      4.000000
  0.250000  0.150000 -0.000000      4.000000
  0.300000  0.150000  0.000000      4.000000
  0.350000  0.150000 -0.000000      4.000000
  0.400000  0.150000  0.000000      4.000000
 -0.100000  0.150000 -0.000000      4.000000
  0.000000  0.200000 -0.000000      4.000000
  0.050000  0.200000  0.000000      4.000000
  0.100000  0.200000 -0.000000      4.000000
  0.150000  0.200000 -0.000000      4.000000
  0.200000  0.200000 -0.000000      4.000000
  0.250000  0.200000  0.000000      4.000000
  0.300000  0.200000  0.000000      4.000000
  0.350000  0.200000 -0.000000      4.000000
  0.400000  0.200000  0.000000      2.000000
 -0.150000  0.200000  0.000000      4.000000
 -0.100000  0.200000 -0.000000      2.000000
  0.000000  0.250000 -0.000000      4.000000
  0.050000  0.250000 -0.000000      4.000000
  0.100000  0.250000 -0.000000      4.000000
  0.150000  0.250000 -0.000000      4.000000
  0.200000  0.250000 -0.000000      4.000000
  0.250000  0.250000 -0.000000      4.000000
  0.300000  0.250000 -0.000000      4.000000
  0.350000  0.250000  0.000000      4.000000
 -0.200000  0.250000 -0.000000      4.000000
 -0.150000  0.250000 -0.000000      4.000000
  0.000000  0.300000  0.000000      4.000000
  0.050000  0.300000  0.000000      4.000000
  0.100000  0.300000 -0.000000      4.000000
  0.150000  0.300000 -0.000000      4.000000
  0.200000  0.300000  0.000000      4.000000
  0.250000  0.300000  0.000000      4.000000
  0.300000  0.300000  0.000000      4.000000
  0.350000  0.300000 -0.000000      2.000000
 -0.250000  0.300000  0.000000      4.000000
 -0.200000  0.300000 -0.000000      4.000000
 -0.150000  0.300000  0.000000      2.000000
  0.000000  0.350000  0.000000      4.000000
  0.050000  0.350000 -0.000000      4.000000
  0.100000  0.350000  0.000000      4.000000
  0.150000  0.350000  0.000000      4.000000
  0.200000  0.350000 -0.000000      4.000000
  0.250000  0.350000  0.000000      4.000000
  0.300000  0.350000 -0.000000      4.000000
 -0.300000  0.350000  0.000000      4.000000
 -0.250000  0.350000 -0.000000      4.000000
 -0.200000  0.350000 -0.000000      4.000000
  0.000000  0.400000 -0.000000      4.000000
  0.050000  0.400000 -0.000000      4.000000
  0.100000  0.400000  0.000000      4.000000
  0.150000  0.400000 -0.000000      4.000000
  0.200000  0.400000 -0.000000      4.000000
  0.250000  0.400000 -0.000000      4.000000
  0.300000  0.400000 -0.000000      2.000000
 -0.350000  0.400000  0.000000      4.000000
 -0.300000  0.400000 -0.000000      4.000000
 -0.250000  0.400000  0.000000      4.000000
 -0.200000  0.400000  0.000000      2.000000
  0.000000  0.450000 -0.000000      4.000000
  0.050000  0.450000 -0.000000      4.000000
  0.100000  0.450000  0.000000      4.000000
  0.150000  0.450000 -0.000000      4.000000
  0.200000  0.450000 -0.000000      4.000000
  0.250000  0.450000 -0.000000      4.000000
 -0.400000  0.450000 -0.000000      4.000000
 -0.350000  0.450000  0.000000      4.000000
 -0.300000  0.450000 -0.000000      4.000000
 -0.250000  0.450000 -0.000000      4.000000
  0.000000  0.500000 -0.000000      2.000000
  0.050000  0.500000 -0.000000      4.000000
  0.100000  0.500000 -0.000000      4.000000
  0.150000  0.500000 -0.000000      4.000000
  0.200000  0.500000  0.000000      4.000000
  0.250000  0.500000  0.000000      2.000000
 
 Following cartesian coordinates:
            Coordinates               Weight
  0.000000  0.000000  0.000000      1.000000
  0.015708  0.009069 -0.000000      2.000000
  0.031416  0.018138 -0.000000      2.000000
  0.047124  0.027207 -0.000000      2.000000
  0.062833  0.036276 -0.000000      2.000000
  0.078541  0.045346 -0.000000      2.000000
  0.094249  0.054415 -0.000000      2.000000
  0.109957  0.063484 -0.000000      2.000000
  0.125665  0.072553 -0.000000      2.000000
  0.141373  0.081622 -0.000000      2.000000
  0.157082  0.090691 -0.000000      1.000000
  0.000000  0.018138 -0.000000      4.000000
  0.015708  0.027207 -0.000000      4.000000
  0.031416  0.036276 -0.000000      4.000000
  0.047124  0.045346 -0.000000      4.000000
  0.062833  0.054415 -0.000000      4.000000
  0.078541  0.063484 -0.000000      4.000000
  0.094249  0.072553 -0.000000      4.000000
  0.109957  0.081622 -0.000000      4.000000
  0.125665  0.090691 -0.000000      4.000000
  0.141373  0.099760 -0.000000      4.000000
  0.000000  0.036276 -0.000000      4.000000
  0.015708  0.045346 -0.000000      4.000000
  0.031416  0.054415 -0.000000      4.000000
  0.047124  0.063484 -0.000000      4.000000
  0.062833  0.072553 -0.000000      4.000000
  0.078541  0.081622 -0.000000      4.000000
  0.094249  0.090691 -0.000000      4.000000
  0.109957  0.099760 -0.000000      4.000000
  0.125665  0.108829 -0.000000      4.000000
  0.141373  0.117898 -0.000000      2.000000
 -0.015708  0.027207 -0.000000      2.000000
  0.000000  0.054415 -0.000000      4.000000
  0.015708  0.063484 -0.000000      4.000000
  0.031416  0.072553 -0.000000      4.000000
  0.047124  0.081622 -0.000000      4.000000
  0.062833  0.090691 -0.000000      4.000000
  0.078541  0.099760 -0.000000      4.000000
  0.094249  0.108829 -0.000000      4.000000
  0.109957  0.117898 -0.000000      4.000000
  0.125665  0.126968 -0.000000      4.000000
 -0.031416  0.036276 -0.000000      4.000000
  0.000000  0.072553 -0.000000      4.000000
  0.015708  0.081622 -0.000000      4.000000
  0.031416  0.090691 -0.000000      4.000000
  0.047124  0.099760 -0.000000      4.000000
  0.062833  0.108829 -0.000000      4.000000
  0.078541  0.117898 -0.000000      4.000000
  0.094249  0.126968 -0.000000      4.000000
  0.109957  0.136037 -0.000000      4.000000
  0.125665  0.145106 -0.000000      2.000000
 -0.047124  0.045346 -0.000000      4.000000
 -0.031416  0.054415 -0.000000      2.000000
  0.000000  0.090691 -0.000000      4.000000
  0.015708  0.099760 -0.000000      4.000000
  0.031416  0.108829 -0.000000      4.000000
  0.047124  0.117898 -0.000000      4.000000
  0.062833  0.126968 -0.000000      4.000000
  0.078541  0.136037 -0.000000      4.000000
  0.094249  0.145106 -0.000000      4.000000
  0.109957  0.154175 -0.000000      4.000000
 -0.062833  0.054415 -0.000000      4.000000
 -0.047124  0.063484 -0.000000      4.000000
  0.000000  0.108829 -0.000000      4.000000
  0.015708  0.117898 -0.000000      4.000000
  0.031416  0.126968 -0.000000      4.000000
  0.047124  0.136037 -0.000000      4.000000
  0.062833  0.145106 -0.000000      4.000000
  0.078541  0.154175 -0.000000      4.000000
  0.094249  0.163244 -0.000000      4.000000
  0.109957  0.172313 -0.000000      2.000000
 -0.078541  0.063484 -0.000000      4.000000
 -0.062833  0.072553 -0.000000      4.000000
 -0.047124  0.081622 -0.000000      2.000000
  0.000000  0.126968 -0.000000      4.000000
  0.015708  0.136037 -0.000000      4.000000
  0.031416  0.145106 -0.000000      4.000000
  0.047124  0.154175 -0.000000      4.000000
  0.062833  0.163244 -0.000000      4.000000
  0.078541  0.172313 -0.000000      4.000000
  0.094249  0.181382 -0.000000      4.000000
 -0.094249  0.072553 -0.000000      4.000000
 -0.078541  0.081622 -0.000000      4.000000
 -0.062833  0.090691 -0.000000      4.000000
  0.000000  0.145106 -0.000000      4.000000
  0.015708  0.154175 -0.000000      4.000000
  0.031416  0.163244 -0.000000      4.000000
  0.047124  0.172313 -0.000000      4.000000
  0.062833  0.181382 -0.000000      4.000000
  0.078541  0.190451 -0.000000      4.000000
  0.094249  0.199520 -0.000000      2.000000
 -0.109957  0.081622 -0.000000      4.000000
 -0.094249  0.090691 -0.000000      4.000000
 -0.078541  0.099760 -0.000000      4.000000
 -0.062833  0.108829 -0.000000      2.000000
  0.000000  0.163244 -0.000000      4.000000
  0.015708  0.172313 -0.000000      4.000000
  0.031416  0.181382 -0.000000      4.000000
  0.047124  0.190451 -0.000000      4.000000
  0.062833  0.199520 -0.000000      4.000000
  0.078541  0.208589 -0.000000      4.000000
 -0.125665  0.090691 -0.000000      4.000000
 -0.109957  0.099760 -0.000000      4.000000
 -0.094249  0.108829 -0.000000      4.000000
 -0.078541  0.117898 -0.000000      4.000000
  0.000000  0.181382 -0.000000      2.000000
  0.015708  0.190451 -0.000000      4.000000
  0.031416  0.199520 -0.000000      4.000000
  0.047124  0.208589 -0.000000      4.000000
  0.062833  0.217659 -0.000000      4.000000
  0.078541  0.226728 -0.000000      2.000000
 
 TETIRR: Found    610 inequivalent tetrahedra from     2400


--------------------------------------------------------------------------------------------------------




 Dimension of arrays:
   k-points           NKPTS =    111   k-points in BZ     NKDIM =    111   number of bands    NBANDS=     16
   number of dos      NEDOS =   2000   number of ions     NIONS =      3
   non local maximal  LDIM  =      6   non local SUM 2l+1 LMDIM =     18
   total plane-waves  NPLWV =  36288
   max r-space proj   IRMAX =      1   max aug-charges    IRDMAX=  13297
   dimension x,y,z NGX =    18 NGY =   18 NGZ =  112
   dimension x,y,z NGXF=    36 NGYF=   36 NGZF=  224
   support grid    NGXF=    36 NGYF=   36 NGZF=  224
   ions per type =               1   2
   NGX,Y,Z   is equivalent  to a cutoff of   9.40,  9.40,  9.19 a.u.
   NGXF,Y,Z  is equivalent  to a cutoff of  18.80, 18.80, 18.37 a.u.

 SYSTEM =  MoS2                                    
 POSCAR =  Mo1S2                                   

 Startparameter for this run:
   NWRITE =      2    write-flag & timer
   PREC   = normal    normal or accurate (medium, high low for compatibility)
   ISTART =      0    job   : 0-new  1-cont  2-samecut
   ICHARG =     11    charge: 1-file 2-atom 10-const
   ISPIN  =      1    spin polarized calculation?
   LNONCOLLINEAR =      F non collinear calculations
   LSORBIT =      F    spin-orbit coupling
   INIWAV =      1    electr: 0-lowe 1-rand  2-diag
   LASPH  =      F    aspherical Exc in radial PAW
   METAGGA=      F    non-selfconsistent MetaGGA calc.

 Electronic Relaxation 1
   ENCUT  =  500.0 eV  36.75 Ry    6.06 a.u.   5.80  5.80 36.96*2*pi/ulx,y,z
   ENINI  =  500.0     initial cutoff
   ENAUG  =  345.3 eV  augmentation charge cutoff
   NELM   =    300;   NELMIN=  2; NELMDL= -5     # of ELM steps 
   EDIFF  = 0.1E-05   stopping-criterion for ELM
   LREAL  =      F    real-space projection
   NLSPLINE    = F    spline interpolate recip. space projectors
   LCOMPAT=      F    compatible to vasp.4.4
   GGA_COMPAT  = T    GGA compatible to vasp.4.4-vasp.4.6
   LMAXPAW     = -100 max onsite density
   LMAXMIX     =    2 max onsite mixed and CHGCAR
   VOSKOWN=      0    Vosko Wilk Nusair interpolation
   ROPT   =    0.00000   0.00000
 Ionic relaxation
   EDIFFG = 0.1E-04   stopping-criterion for IOM
   NSW    =      0    number of steps for IOM
   NBLOCK =      1;   KBLOCK =      1    inner block; outer block 
   IBRION =     -1    ionic relax: 0-MD 1-quasi-New 2-CG
   NFREE  =      0    steps in history (QN), initial steepest desc. (CG)
   ISIF   =      2    stress and relaxation
   IWAVPR =     10    prediction:  0-non 1-charg 2-wave 3-comb
   ISYM   =      2    0-nonsym 1-usesym 2-fastsym
   LCORR  =      T    Harris-Foulkes like correction to forces

   POTIM  = 0.5000    time-step for ionic-motion
   TEIN   =    0.0    initial temperature
   TEBEG  =    0.0;   TEEND  =   0.0 temperature during run
   SMASS  =  -3.00    Nose mass-parameter (am)
   estimated Nose-frequenzy (Omega)   =  0.10E-29 period in steps =****** mass=  -0.232E-27a.u.
   SCALEE = 1.0000    scale energy and forces
   NPACO  =    256;   APACO  = 16.0  distance and # of slots for P.C.
   PSTRESS=    0.0 pullay stress

  Mass of Ions in am
   POMASS =  95.94 32.07
  Ionic Valenz
   ZVAL   =   6.00  6.00
  Atomic Wigner-Seitz radii
   RWIGS  =  -1.00 -1.00
  virtual crystal weights 
   VCA    =   1.00  1.00
   NELECT =      18.0000    total number of electrons
   NUPDOWN=      -1.0000    fix difference up-down

 DOS related values:
   EMIN   =  10.00;   EMAX   =-10.00  energy-range for DOS
   EFERMI =   0.00
   ISMEAR =    -5;   SIGMA  =   0.20  broadening in eV -4-tet -1-fermi 0-gaus

 Electronic relaxation 2 (details)
   IALGO  =     38    algorithm
   LDIAG  =      T    sub-space diagonalisation (order eigenvalues)
   LSUBROT=      F    optimize rotation matrix (better conditioning)
   TURBO    =      0    0=normal 1=particle mesh
   IRESTART =      0    0=no restart 2=restart with 2 vectors
   NREBOOT  =      0    no. of reboots
   NMIN     =      0    reboot dimension
   EREF     =   0.00    reference energy to select bands
   IMIX   =      4    mixing-type and parameters
     AMIX     =   0.40;   BMIX     =  1.00
     AMIX_MAG =   1.60;   BMIX_MAG =  1.00
     AMIN     =   0.10
     WC   =   100.;   INIMIX=   1;  MIXPRE=   1;  MAXMIX= -45

 Intra band minimization:
   WEIMIN = 0.0000     energy-eigenvalue tresh-hold
   EBREAK =  0.16E-07  absolut break condition
   DEPER  =   0.30     relativ break condition  

   TIME   =   0.40     timestep for ELM

  volume/ion in A,a.u.               =      59.29       400.08
  Fermi-wavevector in a.u.,A,eV,Ry     =   0.762912  1.441695  7.919067  0.582035
  Thomas-Fermi vector in A             =   1.862478
 
 Write flags
   LWAVE        =      F    write WAVECAR
   LDOWNSAMPLE  =      F    k-point downsampling of WAVECAR
   LCHARG       =      F    write CHGCAR
   LVTOT        =      F    write LOCPOT, total local potential
   LVHAR        =      F    write LOCPOT, Hartree potential only
   LELF         =      F    write electronic localiz. function (ELF)
   LORBIT       =     11    0 simple, 1 ext, 2 COOP (PROOUT), +10 PAW based schemes


 Dipole corrections
   LMONO  =      F    monopole corrections only (constant potential shift)
   LDIPOL =      F    correct potential (dipole corrections)
   IDIPOL =      0    1-x, 2-y, 3-z, 4-all directions 
   EPSILON=  1.0000000 bulk dielectric constant

 Exchange correlation treatment:
   GGA     =    --    GGA type
   LEXCH   =     8    internal setting for exchange type
   VOSKOWN=      0    Vosko Wilk Nusair interpolation
   LHFCALC =     F    Hartree Fock is set to
   LHFONE  =     F    Hartree Fock one center treatment
   AEXX    =    0.0000 exact exchange contribution

 Linear response parameters
   LEPSILON=     F    determine dielectric tensor
   LRPA    =     F    only Hartree local field effects (RPA)
   LNABLA  =     F    use nabla operator in PAW spheres
   LVEL    =     F    velocity operator in full k-point grid
   LINTERFAST=   F  fast interpolation
   KINTER  =     0    interpolate to denser k-point grid
   CSHIFT  =0.1000    complex shift for real part using Kramers Kronig
   OMEGAMAX=  -1.0    maximum frequency
   DEG_THRESHOLD= 0.2000000E-02 threshold for treating states as degnerate
   RTIME   =   -0.100 relaxation time in fs
  (WPLASMAI=    0.000 imaginary part of plasma frequency in eV, 0.658/RTIME)
   DFIELD  = 0.0000000 0.0000000 0.0000000 field for delta impulse in time
 
 Orbital magnetization related:
   ORBITALMAG=     F  switch on orbital magnetization
   LCHIMAG   =     F  perturbation theory with respect to B field
   DQ        =  0.001000  dq finite difference perturbation B field
   LLRAUG    =     F  two centre corrections for induced B field



--------------------------------------------------------------------------------------------------------


 Static calculation
 charge density and potential remain constant during run
 non-spin polarized calculation
 Variant of blocked Davidson
 Davidson routine will perform the subspace rotation
 perform sub-space diagonalisation
    after iterative eigenvector-optimisation
 no mixing
 using additional bands            7
 reciprocal scheme for non local part
 use partial core corrections
 calculate Harris-corrections to forces 
   (improved forces if not selfconsistent)
 use gradient corrections 
 WARNING: stress and forces are not correct
  (second derivative of E(xc) not defined)
 use of overlap-Matrix (Vanderbilt PP)
 Fermi weights with tetrahedron method with Bloechl corrections


--------------------------------------------------------------------------------------------------------


  energy-cutoff  :      500.00
  volume of cell :      177.86
      direct lattice vectors                 reciprocal lattice vectors
     3.183059931  0.000000000  0.000000000     0.314163108  0.181382155 -0.000000139
    -1.591529965  2.756610762  0.000000000     0.000000000  0.362764310 -0.000000195
     0.000002699  0.000010908 20.269968033     0.000000000  0.000000000  0.049334069

  length of vectors
     3.183059931  3.183059931 20.269968033     0.362764310  0.362764310  0.049334069


 
 k-points in units of 2pi/SCALE and weight: K-Points                                
   0.00000000  0.00000000  0.00000000       0.003
   0.01570816  0.00906911 -0.00000001       0.005
   0.03141631  0.01813822 -0.00000001       0.005
   0.04712447  0.02720732 -0.00000002       0.005
   0.06283262  0.03627643 -0.00000003       0.005
   0.07854078  0.04534554 -0.00000003       0.005
   0.09424893  0.05441465 -0.00000004       0.005
   0.10995709  0.06348375 -0.00000005       0.005
   0.12566524  0.07255286 -0.00000006       0.005
   0.14137340  0.08162197 -0.00000006       0.005
   0.15708155  0.09069108 -0.00000007       0.003
   0.00000000  0.01813822 -0.00000001       0.010
   0.01570816  0.02720732 -0.00000002       0.010
   0.03141631  0.03627643 -0.00000002       0.010
   0.04712447  0.04534554 -0.00000003       0.010
   0.06283262  0.05441465 -0.00000004       0.010
   0.07854078  0.06348375 -0.00000004       0.010
   0.09424893  0.07255286 -0.00000005       0.010
   0.10995709  0.08162197 -0.00000006       0.010
   0.12566524  0.09069108 -0.00000007       0.010
   0.14137340  0.09976019 -0.00000007       0.010
   0.00000000  0.03627643 -0.00000002       0.010
   0.01570816  0.04534554 -0.00000003       0.010
   0.03141631  0.05441465 -0.00000003       0.010
   0.04712447  0.06348375 -0.00000004       0.010
   0.06283262  0.07255286 -0.00000005       0.010
   0.07854078  0.08162197 -0.00000005       0.010
   0.09424893  0.09069108 -0.00000006       0.010
   0.10995709  0.09976019 -0.00000007       0.010
   0.12566524  0.10882929 -0.00000008       0.010
   0.14137340  0.11789840 -0.00000008       0.005
  -0.01570816  0.02720732 -0.00000001       0.005
   0.00000000  0.05441465 -0.00000003       0.010
   0.01570816  0.06348375 -0.00000004       0.010
   0.03141631  0.07255286 -0.00000004       0.010
   0.04712447  0.08162197 -0.00000005       0.010
   0.06283262  0.09069108 -0.00000006       0.010
   0.07854078  0.09976019 -0.00000006       0.010
   0.09424893  0.10882929 -0.00000007       0.010
   0.10995709  0.11789840 -0.00000008       0.010
   0.12566524  0.12696751 -0.00000009       0.010
  -0.03141631  0.03627643 -0.00000002       0.010
   0.00000000  0.07255286 -0.00000004       0.010
   0.01570816  0.08162197 -0.00000005       0.010
   0.03141631  0.09069108 -0.00000005       0.010
   0.04712447  0.09976019 -0.00000006       0.010
   0.06283262  0.10882929 -0.00000007       0.010
   0.07854078  0.11789840 -0.00000007       0.010
   0.09424893  0.12696751 -0.00000008       0.010
   0.10995709  0.13603662 -0.00000009       0.010
   0.12566524  0.14510572 -0.00000009       0.005
  -0.04712447  0.04534554 -0.00000002       0.010
  -0.03141631  0.05441465 -0.00000003       0.005
   0.00000000  0.09069108 -0.00000005       0.010
   0.01570816  0.09976019 -0.00000006       0.010
   0.03141631  0.10882929 -0.00000006       0.010
   0.04712447  0.11789840 -0.00000007       0.010
   0.06283262  0.12696751 -0.00000008       0.010
   0.07854078  0.13603662 -0.00000008       0.010
   0.09424893  0.14510572 -0.00000009       0.010
   0.10995709  0.15417483 -0.00000010       0.010
  -0.06283262  0.05441465 -0.00000002       0.010
  -0.04712447  0.06348375 -0.00000003       0.010
   0.00000000  0.10882929 -0.00000006       0.010
   0.01570816  0.11789840 -0.00000007       0.010
   0.03141631  0.12696751 -0.00000007       0.010
   0.04712447  0.13603662 -0.00000008       0.010
   0.06283262  0.14510572 -0.00000009       0.010
   0.07854078  0.15417483 -0.00000009       0.010
   0.09424893  0.16324394 -0.00000010       0.010
   0.10995709  0.17231305 -0.00000011       0.005
  -0.07854078  0.06348375 -0.00000002       0.010
  -0.06283262  0.07255286 -0.00000003       0.010
  -0.04712447  0.08162197 -0.00000004       0.005
   0.00000000  0.12696751 -0.00000007       0.010
   0.01570816  0.13603662 -0.00000008       0.010
   0.03141631  0.14510572 -0.00000008       0.010
   0.04712447  0.15417483 -0.00000009       0.010
   0.06283262  0.16324394 -0.00000010       0.010
   0.07854078  0.17231305 -0.00000010       0.010
   0.09424893  0.18138215 -0.00000011       0.010
  -0.09424893  0.07255286 -0.00000003       0.010
  -0.07854078  0.08162197 -0.00000003       0.010
  -0.06283262  0.09069108 -0.00000004       0.010
   0.00000000  0.14510572 -0.00000008       0.010
   0.01570816  0.15417483 -0.00000009       0.010
   0.03141631  0.16324394 -0.00000009       0.010
   0.04712447  0.17231305 -0.00000010       0.010
   0.06283262  0.18138215 -0.00000011       0.010
   0.07854078  0.19045126 -0.00000011       0.010
   0.09424893  0.19952037 -0.00000012       0.005
  -0.10995709  0.08162197 -0.00000003       0.010
  -0.09424893  0.09069108 -0.00000004       0.010
  -0.07854078  0.09976019 -0.00000004       0.010
  -0.06283262  0.10882929 -0.00000005       0.005
   0.00000000  0.16324394 -0.00000009       0.010
   0.01570816  0.17231305 -0.00000009       0.010
   0.03141631  0.18138215 -0.00000010       0.010
   0.04712447  0.19045126 -0.00000011       0.010
   0.06283262  0.19952037 -0.00000012       0.010
   0.07854078  0.20858948 -0.00000012       0.010
  -0.12566524  0.09069108 -0.00000003       0.010
  -0.10995709  0.09976019 -0.00000004       0.010
  -0.09424893  0.10882929 -0.00000005       0.010
  -0.07854078  0.11789840 -0.00000005       0.010
   0.00000000  0.18138215 -0.00000010       0.005
   0.01570816  0.19045126 -0.00000010       0.010
   0.03141631  0.19952037 -0.00000011       0.010
   0.04712447  0.20858948 -0.00000012       0.010
   0.06283262  0.21765859 -0.00000013       0.010
   0.07854078  0.22672769 -0.00000013       0.005
 
 k-points in reciprocal lattice and weights: K-Points                                
   0.00000000  0.00000000  0.00000000       0.003
   0.05000000 -0.00000000 -0.00000000       0.005
   0.10000000 -0.00000000 -0.00000000       0.005
   0.15000000  0.00000000 -0.00000000       0.005
   0.20000000  0.00000000  0.00000000       0.005
   0.25000000  0.00000000 -0.00000000       0.005
   0.30000000  0.00000000  0.00000000       0.005
   0.35000000  0.00000000 -0.00000000       0.005
   0.40000000  0.00000000  0.00000000       0.005
   0.45000000  0.00000000  0.00000000       0.005
   0.50000000  0.00000000 -0.00000000       0.003
   0.00000000  0.05000000  0.00000000       0.010
   0.05000000  0.05000000 -0.00000000       0.010
   0.10000000  0.05000000 -0.00000000       0.010
   0.15000000  0.05000000 -0.00000000       0.010
   0.20000000  0.05000000  0.00000000       0.010
   0.25000000  0.05000000 -0.00000000       0.010
   0.30000000  0.05000000  0.00000000       0.010
   0.35000000  0.05000000 -0.00000000       0.010
   0.40000000  0.05000000  0.00000000       0.010
   0.45000000  0.05000000  0.00000000       0.010
   0.00000000  0.10000000  0.00000000       0.010
   0.05000000  0.10000000  0.00000000       0.010
   0.10000000  0.10000000 -0.00000000       0.010
   0.15000000  0.10000000  0.00000000       0.010
   0.20000000  0.10000000  0.00000000       0.010
   0.25000000  0.10000000  0.00000000       0.010
   0.30000000  0.10000000 -0.00000000       0.010
   0.35000000  0.10000000 -0.00000000       0.010
   0.40000000  0.10000000  0.00000000       0.010
   0.45000000  0.10000000  0.00000000       0.005
  -0.05000000  0.10000000  0.00000000       0.005
   0.00000000  0.15000000 -0.00000000       0.010
   0.05000000  0.15000000 -0.00000000       0.010
   0.10000000  0.15000000 -0.00000000       0.010
   0.15000000  0.15000000  0.00000000       0.010
   0.20000000  0.15000000 -0.00000000       0.010
   0.25000000  0.15000000 -0.00000000       0.010
   0.30000000  0.15000000  0.00000000       0.010
   0.35000000  0.15000000 -0.00000000       0.010
   0.40000000  0.15000000  0.00000000       0.010
  -0.10000000  0.15000000 -0.00000000       0.010
   0.00000000  0.20000000 -0.00000000       0.010
   0.05000000  0.20000000  0.00000000       0.010
   0.10000000  0.20000000 -0.00000000       0.010
   0.15000000  0.20000000 -0.00000000       0.010
   0.20000000  0.20000000 -0.00000000       0.010
   0.25000000  0.20000000  0.00000000       0.010
   0.30000000  0.20000000  0.00000000       0.010
   0.35000000  0.20000000 -0.00000000       0.010
   0.40000000  0.20000000  0.00000000       0.005
  -0.15000000  0.20000000  0.00000000       0.010
  -0.10000000  0.20000000 -0.00000000       0.005
   0.00000000  0.25000000 -0.00000000       0.010
   0.05000000  0.25000000 -0.00000000       0.010
   0.10000000  0.25000000 -0.00000000       0.010
   0.15000000  0.25000000 -0.00000000       0.010
   0.20000000  0.25000000 -0.00000000       0.010
   0.25000000  0.25000000 -0.00000000       0.010
   0.30000000  0.25000000 -0.00000000       0.010
   0.35000000  0.25000000  0.00000000       0.010
  -0.20000000  0.25000000 -0.00000000       0.010
  -0.15000000  0.25000000 -0.00000000       0.010
   0.00000000  0.30000000  0.00000000       0.010
   0.05000000  0.30000000  0.00000000       0.010
   0.10000000  0.30000000 -0.00000000       0.010
   0.15000000  0.30000000 -0.00000000       0.010
   0.20000000  0.30000000  0.00000000       0.010
   0.25000000  0.30000000  0.00000000       0.010
   0.30000000  0.30000000  0.00000000       0.010
   0.35000000  0.30000000 -0.00000000       0.005
  -0.25000000  0.30000000  0.00000000       0.010
  -0.20000000  0.30000000 -0.00000000       0.010
  -0.15000000  0.30000000  0.00000000       0.005
   0.00000000  0.35000000  0.00000000       0.010
   0.05000000  0.35000000 -0.00000000       0.010
   0.10000000  0.35000000  0.00000000       0.010
   0.15000000  0.35000000  0.00000000       0.010
   0.20000000  0.35000000 -0.00000000       0.010
   0.25000000  0.35000000  0.00000000       0.010
   0.30000000  0.35000000 -0.00000000       0.010
  -0.30000000  0.35000000  0.00000000       0.010
  -0.25000000  0.35000000 -0.00000000       0.010
  -0.20000000  0.35000000 -0.00000000       0.010
   0.00000000  0.40000000 -0.00000000       0.010
   0.05000000  0.40000000 -0.00000000       0.010
   0.10000000  0.40000000  0.00000000       0.010
   0.15000000  0.40000000 -0.00000000       0.010
   0.20000000  0.40000000 -0.00000000       0.010
   0.25000000  0.40000000 -0.00000000       0.010
   0.30000000  0.40000000 -0.00000000       0.005
  -0.35000000  0.40000000  0.00000000       0.010
  -0.30000000  0.40000000 -0.00000000       0.010
  -0.25000000  0.40000000  0.00000000       0.010
  -0.20000000  0.40000000  0.00000000       0.005
   0.00000000  0.45000000 -0.00000000       0.010
   0.05000000  0.45000000 -0.00000000       0.010
   0.10000000  0.45000000  0.00000000       0.010
   0.15000000  0.45000000 -0.00000000       0.010
   0.20000000  0.45000000 -0.00000000       0.010
   0.25000000  0.45000000 -0.00000000       0.010
  -0.40000000  0.45000000 -0.00000000       0.010
  -0.35000000  0.45000000  0.00000000       0.010
  -0.30000000  0.45000000 -0.00000000       0.010
  -0.25000000  0.45000000 -0.00000000       0.010
   0.00000000  0.50000000 -0.00000000       0.005
   0.05000000  0.50000000 -0.00000000       0.010
   0.10000000  0.50000000 -0.00000000       0.010
   0.15000000  0.50000000 -0.00000000       0.010
   0.20000000  0.50000000  0.00000000       0.010
   0.25000000  0.50000000  0.00000000       0.005
 
 position of ions in fractional coordinates (direct lattice) 
   0.66666932  0.33332178  0.16781410
   0.33331886  0.66664608  0.09067811
   0.33331881  0.66664612  0.24495119
 
 position of ions in cartesian coordinates  (Angst):
   1.59155727  0.91884023  3.40158652
  -0.00001306  1.83768475  1.83804237
  -0.00001286  1.83768654  4.96515275
 


--------------------------------------------------------------------------------------------------------


 k-point  1 :   0.0000 0.0000 0.0000  plane waves:    4495
 k-point  2 :   0.0500-0.0000-0.0000  plane waves:    4482
 k-point  3 :   0.1000-0.0000-0.0000  plane waves:    4496
 k-point  4 :   0.1500 0.0000-0.0000  plane waves:    4496
 k-point  5 :   0.2000 0.0000 0.0000  plane waves:    4518
 k-point  6 :   0.2500 0.0000-0.0000  plane waves:    4516
 k-point  7 :   0.3000 0.0000 0.0000  plane waves:    4524
 k-point  8 :   0.3500 0.0000-0.0000  plane waves:    4520
 k-point  9 :   0.4000 0.0000 0.0000  plane waves:    4534
 k-point 10 :   0.4500 0.0000 0.0000  plane waves:    4532
 k-point 11 :   0.5000 0.0000-0.0000  plane waves:    4532
 k-point 12 :   0.0000 0.0500 0.0000  plane waves:    4482
 k-point 13 :   0.0500 0.0500-0.0000  plane waves:    4507
 k-point 14 :   0.1000 0.0500-0.0000  plane waves:    4496
 k-point 15 :   0.1500 0.0500-0.0000  plane waves:    4499
 k-point 16 :   0.2000 0.0500 0.0000  plane waves:    4512
 k-point 17 :   0.2500 0.0500-0.0000  plane waves:    4515
 k-point 18 :   0.3000 0.0500 0.0000  plane waves:    4527
 k-point 19 :   0.3500 0.0500-0.0000  plane waves:    4541
 k-point 20 :   0.4000 0.0500 0.0000  plane waves:    4534
 k-point 21 :   0.4500 0.0500 0.0000  plane waves:    4526
 k-point 22 :   0.0000 0.1000 0.0000  plane waves:    4496
 k-point 23 :   0.0500 0.1000 0.0000  plane waves:    4496
 k-point 24 :   0.1000 0.1000-0.0000  plane waves:    4490
 k-point 25 :   0.1500 0.1000 0.0000  plane waves:    4503
 k-point 26 :   0.2000 0.1000 0.0000  plane waves:    4497
 k-point 27 :   0.2500 0.1000 0.0000  plane waves:    4518
 k-point 28 :   0.3000 0.1000-0.0000  plane waves:    4525
 k-point 29 :   0.3500 0.1000-0.0000  plane waves:    4533
 k-point 30 :   0.4000 0.1000 0.0000  plane waves:    4529
 k-point 31 :   0.4500 0.1000 0.0000  plane waves:    4538
 k-point 32 :  -0.0500 0.1000 0.0000  plane waves:    4507
 k-point 33 :   0.0000 0.1500-0.0000  plane waves:    4496
 k-point 34 :   0.0500 0.1500-0.0000  plane waves:    4499
 k-point 35 :   0.1000 0.1500-0.0000  plane waves:    4503
 k-point 36 :   0.1500 0.1500 0.0000  plane waves:    4502
 k-point 37 :   0.2000 0.1500-0.0000  plane waves:    4505
 k-point 38 :   0.2500 0.1500-0.0000  plane waves:    4514
 k-point 39 :   0.3000 0.1500 0.0000  plane waves:    4525
 k-point 40 :   0.3500 0.1500-0.0000  plane waves:    4531
 k-point 41 :   0.4000 0.1500 0.0000  plane waves:    4513
 k-point 42 :  -0.1000 0.1500-0.0000  plane waves:    4496
 k-point 43 :   0.0000 0.2000-0.0000  plane waves:    4518
 k-point 44 :   0.0500 0.2000 0.0000  plane waves:    4512
 k-point 45 :   0.1000 0.2000-0.0000  plane waves:    4497
 k-point 46 :   0.1500 0.2000-0.0000  plane waves:    4505
 k-point 47 :   0.2000 0.2000-0.0000  plane waves:    4506
 k-point 48 :   0.2500 0.2000 0.0000  plane waves:    4519
 k-point 49 :   0.3000 0.2000 0.0000  plane waves:    4525
 k-point 50 :   0.3500 0.2000-0.0000  plane waves:    4508
 k-point 51 :   0.4000 0.2000 0.0000  plane waves:    4494
 k-point 52 :  -0.1500 0.2000 0.0000  plane waves:    4499
 k-point 53 :  -0.1000 0.2000-0.0000  plane waves:    4490
 k-point 54 :   0.0000 0.2500-0.0000  plane waves:    4516
 k-point 55 :   0.0500 0.2500-0.0000  plane waves:    4515
 k-point 56 :   0.1000 0.2500-0.0000  plane waves:    4518
 k-point 57 :   0.1500 0.2500-0.0000  plane waves:    4514
 k-point 58 :   0.2000 0.2500-0.0000  plane waves:    4519
 k-point 59 :   0.2500 0.2500-0.0000  plane waves:    4530
 k-point 60 :   0.3000 0.2500-0.0000  plane waves:    4503
 k-point 61 :   0.3500 0.2500 0.0000  plane waves:    4507
 k-point 62 :  -0.2000 0.2500-0.0000  plane waves:    4512
 k-point 63 :  -0.1500 0.2500-0.0000  plane waves:    4503
 k-point 64 :   0.0000 0.3000 0.0000  plane waves:    4524
 k-point 65 :   0.0500 0.3000 0.0000  plane waves:    4527
 k-point 66 :   0.1000 0.3000-0.0000  plane waves:    4525
 k-point 67 :   0.1500 0.3000-0.0000  plane waves:    4525
 k-point 68 :   0.2000 0.3000 0.0000  plane waves:    4525
 k-point 69 :   0.2500 0.3000 0.0000  plane waves:    4503
 k-point 70 :   0.3000 0.3000 0.0000  plane waves:    4512
 k-point 71 :   0.3500 0.3000-0.0000  plane waves:    4508
 k-point 72 :  -0.2500 0.3000 0.0000  plane waves:    4515
 k-point 73 :  -0.2000 0.3000-0.0000  plane waves:    4497
 k-point 74 :  -0.1500 0.3000 0.0000  plane waves:    4502
 k-point 75 :   0.0000 0.3500 0.0000  plane waves:    4520
 k-point 76 :   0.0500 0.3500-0.0000  plane waves:    4541
 k-point 77 :   0.1000 0.3500 0.0000  plane waves:    4533
 k-point 78 :   0.1500 0.3500 0.0000  plane waves:    4531
 k-point 79 :   0.2000 0.3500-0.0000  plane waves:    4508
 k-point 80 :   0.2500 0.3500 0.0000  plane waves:    4507
 k-point 81 :   0.3000 0.3500-0.0000  plane waves:    4508
 k-point 82 :  -0.3000 0.3500 0.0000  plane waves:    4527
 k-point 83 :  -0.2500 0.3500-0.0000  plane waves:    4518
 k-point 84 :  -0.2000 0.3500-0.0000  plane waves:    4505
 k-point 85 :   0.0000 0.4000-0.0000  plane waves:    4534
 k-point 86 :   0.0500 0.4000-0.0000  plane waves:    4534
 k-point 87 :   0.1000 0.4000 0.0000  plane waves:    4529
 k-point 88 :   0.1500 0.4000-0.0000  plane waves:    4513
 k-point 89 :   0.2000 0.4000-0.0000  plane waves:    4494
 k-point 90 :   0.2500 0.4000-0.0000  plane waves:    4507
 k-point 91 :   0.3000 0.4000-0.0000  plane waves:    4512
 k-point 92 :  -0.3500 0.4000 0.0000  plane waves:    4541
 k-point 93 :  -0.3000 0.4000-0.0000  plane waves:    4525
 k-point 94 :  -0.2500 0.4000 0.0000  plane waves:    4514
 k-point 95 :  -0.2000 0.4000 0.0000  plane waves:    4506
 k-point 96 :   0.0000 0.4500-0.0000  plane waves:    4532
 k-point 97 :   0.0500 0.4500-0.0000  plane waves:    4526
 k-point 98 :   0.1000 0.4500 0.0000  plane waves:    4538
 k-point 99 :   0.1500 0.4500-0.0000  plane waves:    4513
 k-point ** :   0.2000 0.4500-0.0000  plane waves:    4508
 k-point ** :   0.2500 0.4500-0.0000  plane waves:    4503
 k-point ** :  -0.4000 0.4500-0.0000  plane waves:    4534
 k-point ** :  -0.3500 0.4500 0.0000  plane waves:    4533
 k-point ** :  -0.3000 0.4500-0.0000  plane waves:    4525
 k-point ** :  -0.2500 0.4500-0.0000  plane waves:    4519
 k-point ** :   0.0000 0.5000-0.0000  plane waves:    4532
 k-point ** :   0.0500 0.5000-0.0000  plane waves:    4526
 k-point ** :   0.1000 0.5000-0.0000  plane waves:    4529
 k-point ** :   0.1500 0.5000-0.0000  plane waves:    4531
 k-point ** :   0.2000 0.5000 0.0000  plane waves:    4525
 k-point ** :   0.2500 0.5000 0.0000  plane waves:    4530

 maximum and minimum number of plane-waves per node :       664      611

 maximum number of plane-waves:      4541
 maximum index in each direction: 
   IXMAX=    6   IYMAX=    5   IZMAX=   36
   IXMIN=   -6   IYMIN=   -6   IZMIN=  -36


 parallel 3D FFT for wavefunctions:
    minimum data exchange during FFTs selected (reduces bandwidth)
 parallel 3D FFT for charge:
    minimum data exchange during FFTs selected (reduces bandwidth)


 total amount of memory used by VASP MPI-rank0    57805. kBytes
=======================================================================

   base      :      30000. kBytes
   nonl-proj :      21130. kBytes
   fftplans  :        679. kBytes
   grid      :       1151. kBytes
   one-center:         15. kBytes
   wavefun   :       4830. kBytes
 
     INWAV:  cpu time    0.0000: real time    0.0000
 initial charge density was supplied:
 number of electron      18.0000013 magnetization 
 keeping initial charge density in first step


--------------------------------------------------------------------------------------------------------


 Maximum index for augmentation-charges          826 (set IRDMAX)


--------------------------------------------------------------------------------------------------------


 First call to EWALD:  gamma=   0.315
 Maximum number of real-space cells 5x 5x 1
 Maximum number of reciprocal cells 2x 2x 9

    FEWALD:  cpu time    0.0018: real time    0.0025


--------------------------------------- Iteration      1(   1)  ---------------------------------------


    POTLOK:  cpu time    0.0145: real time    0.0256
    SETDIJ:  cpu time    0.0027: real time    0.0045
     EDDAV:  cpu time    1.0377: real time    1.0664
 BZINTS: Fermi energy:  7.314174; 18.000000 electrons
         Band energy:   1.358568;  BLOECHL correction: -0.078871
       DOS:  cpu time    0.0211: real time    0.0231
    --------------------------------------------
      LOOP:  cpu time    1.0761: real time    1.1196

 eigenvalue-minimisations  :  3552
 total energy-change (2. order) : 0.1164344E+03  (-0.6161823E+03)
 number of electron      18.0000013 magnetization 
 augmentation part       18.0000013 magnetization 

 Free energy of the ion-electron system (eV)
  ---------------------------------------------------
  alpha Z        PSCENC =        16.67021146
  Ewald energy   TEWEN  =      2536.01924891
  -Hartree energ DENC   =     -3249.40427490
  -exchange      EXHF   =         0.00000000
  -V(xc)+E(xc)   XCENC  =       -35.15763025
  PAW double counting   =      1604.01216635    -1528.22186513
  entropy T*S    EENTRO =         0.00000000
  eigenvalues    EBANDS =         1.35856832
  atomic energy  EATOM  =       771.15796241
  Solvation  Ediel_sol  =         0.00000000
  ---------------------------------------------------
  free energy    TOTEN  =       116.43438717 eV

  energy without entropy =      116.43438717  energy(sigma->0) =      116.43438717


--------------------------------------------------------------------------------------------------------




--------------------------------------- Iteration      1(   2)  ---------------------------------------


     EDDAV:  cpu time    1.1866: real time    1.1972
 BZINTS: Fermi energy: -1.803614; 18.000000 electrons
         Band energy:-125.068477;  BLOECHL correction:  0.000000
       DOS:  cpu time    0.0088: real time    0.0088
    --------------------------------------------
      LOOP:  cpu time    1.1954: real time    1.2060

 eigenvalue-minimisations  :  5344
 total energy-change (2. order) :-0.1264270E+03  (-0.1158398E+03)
 number of electron      18.0000013 magnetization 
 augmentation part       18.0000013 magnetization 

 Free energy of the ion-electron system (eV)
  ---------------------------------------------------
  alpha Z        PSCENC =        16.67021146
  Ewald energy   TEWEN  =      2536.01924891
  -Hartree energ DENC   =     -3249.40427490
  -exchange      EXHF   =         0.00000000
  -V(xc)+E(xc)   XCENC  =       -35.15763025
  PAW double counting   =      1604.01216635    -1528.22186513
  entropy T*S    EENTRO =         0.00000000
  eigenvalues    EBANDS =      -125.06847719
  atomic energy  EATOM  =       771.15796241
  Solvation  Ediel_sol  =         0.00000000
  ---------------------------------------------------
  free energy    TOTEN  =        -9.99265834 eV

  energy without entropy =       -9.99265834  energy(sigma->0) =       -9.99265834


--------------------------------------------------------------------------------------------------------




--------------------------------------- Iteration      1(   3)  ---------------------------------------


     EDDAV:  cpu time    1.0192: real time    1.0213
 BZINTS: Fermi energy: -2.617727; 18.000000 electrons
         Band energy:-136.655764;  BLOECHL correction:  0.000000
       DOS:  cpu time    0.0064: real time    0.0064
    --------------------------------------------
      LOOP:  cpu time    1.0256: real time    1.0277

 eigenvalue-minimisations  :  4536
 total energy-change (2. order) :-0.1158729E+02  (-0.1144828E+02)
 number of electron      18.0000013 magnetization 
 augmentation part       18.0000013 magnetization 

 Free energy of the ion-electron system (eV)
  ---------------------------------------------------
  alpha Z        PSCENC =        16.67021146
  Ewald energy   TEWEN  =      2536.01924891
  -Hartree energ DENC   =     -3249.40427490
  -exchange      EXHF   =         0.00000000
  -V(xc)+E(xc)   XCENC  =       -35.15763025
  PAW double counting   =      1604.01216635    -1528.22186513
  entropy T*S    EENTRO =         0.00000000
  eigenvalues    EBANDS =      -136.65576357
  atomic energy  EATOM  =       771.15796241
  Solvation  Ediel_sol  =         0.00000000
  ---------------------------------------------------
  free energy    TOTEN  =       -21.57994472 eV

  energy without entropy =      -21.57994472  energy(sigma->0) =      -21.57994472


--------------------------------------------------------------------------------------------------------




--------------------------------------- Iteration      1(   4)  ---------------------------------------


     EDDAV:  cpu time    1.0383: real time    1.0402
 BZINTS: Fermi energy: -2.622468; 18.000000 electrons
         Band energy:-136.867652;  BLOECHL correction:  0.000000
       DOS:  cpu time    0.0059: real time    0.0059
    --------------------------------------------
      LOOP:  cpu time    1.0442: real time    1.0461

 eigenvalue-minimisations  :  4624
 total energy-change (2. order) :-0.2118886E+00  (-0.2114860E+00)
 number of electron      18.0000013 magnetization 
 augmentation part       18.0000013 magnetization 

 Free energy of the ion-electron system (eV)
  ---------------------------------------------------
  alpha Z        PSCENC =        16.67021146
  Ewald energy   TEWEN  =      2536.01924891
  -Hartree energ DENC   =     -3249.40427490
  -exchange      EXHF   =         0.00000000
  -V(xc)+E(xc)   XCENC  =       -35.15763025
  PAW double counting   =      1604.01216635    -1528.22186513
  entropy T*S    EENTRO =         0.00000000
  eigenvalues    EBANDS =      -136.86765215
  atomic energy  EATOM  =       771.15796241
  Solvation  Ediel_sol  =         0.00000000
  ---------------------------------------------------
  free energy    TOTEN  =       -21.79183330 eV

  energy without entropy =      -21.79183330  energy(sigma->0) =      -21.79183330


--------------------------------------------------------------------------------------------------------




--------------------------------------- Iteration      1(   5)  ---------------------------------------


     EDDAV:  cpu time    1.1569: real time    1.1607
 BZINTS: Fermi energy: -2.615804; 18.000000 electrons
         Band energy:-136.873114;  BLOECHL correction:  0.000000
       DOS:  cpu time    0.0063: real time    0.0063
    --------------------------------------------
      LOOP:  cpu time    1.1632: real time    1.1670

 eigenvalue-minimisations  :  4864
 total energy-change (2. order) :-0.5461668E-02  (-0.5461153E-02)
 number of electron      18.0000013 magnetization 
 augmentation part       18.0000013 magnetization 

 Free energy of the ion-electron system (eV)
  ---------------------------------------------------
  alpha Z        PSCENC =        16.67021146
  Ewald energy   TEWEN  =      2536.01924891
  -Hartree energ DENC   =     -3249.40427490
  -exchange      EXHF   =         0.00000000
  -V(xc)+E(xc)   XCENC  =       -35.15763025
  PAW double counting   =      1604.01216635    -1528.22186513
  entropy T*S    EENTRO =         0.00000000
  eigenvalues    EBANDS =      -136.87311382
  atomic energy  EATOM  =       771.15796241
  Solvation  Ediel_sol  =         0.00000000
  ---------------------------------------------------
  free energy    TOTEN  =       -21.79729496 eV

  energy without entropy =      -21.79729496  energy(sigma->0) =      -21.79729496


--------------------------------------------------------------------------------------------------------




--------------------------------------- Iteration      1(   6)  ---------------------------------------


     EDDAV:  cpu time    1.1454: real time    1.1511
 BZINTS: Fermi energy: -2.617081; 18.000000 electrons
         Band energy:-136.873337;  BLOECHL correction:  0.000000
       DOS:  cpu time    0.0063: real time    0.0063
    --------------------------------------------
      LOOP:  cpu time    1.1517: real time    1.1574

 eigenvalue-minimisations  :  4904
 total energy-change (2. order) :-0.2230469E-03  (-0.2230435E-03)
 number of electron      18.0000013 magnetization 
 augmentation part       18.0000013 magnetization 

 Free energy of the ion-electron system (eV)
  ---------------------------------------------------
  alpha Z        PSCENC =        16.67021146
  Ewald energy   TEWEN  =      2536.01924891
  -Hartree energ DENC   =     -3249.40427490
  -exchange      EXHF   =         0.00000000
  -V(xc)+E(xc)   XCENC  =       -35.15763025
  PAW double counting   =      1604.01216635    -1528.22186513
  entropy T*S    EENTRO =         0.00000000
  eigenvalues    EBANDS =      -136.87333686
  atomic energy  EATOM  =       771.15796241
  Solvation  Ediel_sol  =         0.00000000
  ---------------------------------------------------
  free energy    TOTEN  =       -21.79751801 eV

  energy without entropy =      -21.79751801  energy(sigma->0) =      -21.79751801


--------------------------------------------------------------------------------------------------------




--------------------------------------- Iteration      1(   7)  ---------------------------------------


     EDDAV:  cpu time    1.1388: real time    1.1407
 BZINTS: Fermi energy: -2.617178; 18.000000 electrons
         Band energy:-136.873345;  BLOECHL correction:  0.000000
       DOS:  cpu time    0.0063: real time    0.0063
    --------------------------------------------
      LOOP:  cpu time    1.1451: real time    1.1471

 eigenvalue-minimisations  :  5024
 total energy-change (2. order) :-0.8109285E-05  (-0.8109269E-05)
 number of electron      18.0000013 magnetization 
 augmentation part       18.0000013 magnetization 

 Free energy of the ion-electron system (eV)
  ---------------------------------------------------
  alpha Z        PSCENC =        16.67021146
  Ewald energy   TEWEN  =      2536.01924891
  -Hartree energ DENC   =     -3249.40427490
  -exchange      EXHF   =         0.00000000
  -V(xc)+E(xc)   XCENC  =       -35.15763025
  PAW double counting   =      1604.01216635    -1528.22186513
  entropy T*S    EENTRO =         0.00000000
  eigenvalues    EBANDS =      -136.87334497
  atomic energy  EATOM  =       771.15796241
  Solvation  Ediel_sol  =         0.00000000
  ---------------------------------------------------
  free energy    TOTEN  =       -21.79752612 eV

  energy without entropy =      -21.79752612  energy(sigma->0) =      -21.79752612


--------------------------------------------------------------------------------------------------------




--------------------------------------- Iteration      1(   8)  ---------------------------------------


     EDDAV:  cpu time    1.0463: real time    1.0486
 BZINTS: Fermi energy: -2.617191; 18.000000 electrons
         Band energy:-136.873345;  BLOECHL correction:  0.000000
       DOS:  cpu time    0.0063: real time    0.0063
    --------------------------------------------
      LOOP:  cpu time    1.0526: real time    1.0548

 eigenvalue-minimisations  :  4624
 total energy-change (2. order) :-0.4071662E-06  (-0.4071370E-06)
 number of electron      18.0000013 magnetization 
 augmentation part       18.0000013 magnetization 

 Free energy of the ion-electron system (eV)
  ---------------------------------------------------
  alpha Z        PSCENC =        16.67021146
  Ewald energy   TEWEN  =      2536.01924891
  -Hartree energ DENC   =     -3249.40427490
  -exchange      EXHF   =         0.00000000
  -V(xc)+E(xc)   XCENC  =       -35.15763025
  PAW double counting   =      1604.01216635    -1528.22186513
  entropy T*S    EENTRO =         0.00000000
  eigenvalues    EBANDS =      -136.87334538
  atomic energy  EATOM  =       771.15796241
  Solvation  Ediel_sol  =         0.00000000
  ---------------------------------------------------
  free energy    TOTEN  =       -21.79752653 eV

  energy without entropy =      -21.79752653  energy(sigma->0) =      -21.79752653


--------------------------------------------------------------------------------------------------------




 average (electrostatic) potential at core
  the test charge radii are     1.2296  0.9698
  (the norm of the test charge is              1.0000)
       1 -46.0267       2 -93.8825       3 -93.8831
 
 
 
 E-fermi :  -2.6172     XC(G=0):  -3.7487     alpha+bet : -3.5530


 k-point     1 :       0.0000    0.0000    0.0000
  band No.  band energies     occupation 
      1     -16.6602      2.00000
      2     -15.4440      2.00000
      3      -8.1804      2.00000
      4      -5.1981      2.00000
      5      -5.1980      2.00000
      6      -4.3431      2.00000
      7      -4.0791      2.00000
      8      -4.0787      2.00000
      9      -2.6248      2.00000
     10       0.1876      0.00000
     11       0.1881      0.00000
     12       0.4116      0.00000
     13       0.4118      0.00000
     14       2.8021      0.00000
     15       3.0282      0.00000
     16       3.6362      0.00000

 k-point     2 :       0.0500   -0.0000   -0.0000
  band No.  band energies     occupation 
      1     -16.6248      2.00000
      2     -15.4270      2.00000
      3      -8.1382      2.00000
      4      -5.2822      2.00000
      5      -5.1589      2.00000
      6      -4.5899      2.00000
      7      -4.1399      2.00000
      8      -3.8861      2.00000
      9      -2.6414      2.00000
     10       0.1278      0.00000
     11       0.2531      0.00000
     12       0.3002      0.00000
     13       0.3687      0.00000
     14       2.8719      0.00000
     15       3.0775      0.00000
     16       3.7223      0.00000

 k-point     3 :       0.1000   -0.0000   -0.0000
  band No.  band energies     occupation 
      1     -16.5204      2.00000
      2     -15.3771      2.00000
      3      -8.0178      2.00000
      4      -5.5116      2.00000
      5      -5.0442      2.00000
      6      -4.9569      2.00000
      7      -4.3066      2.00000
      8      -3.6975      2.00000
      9      -2.7033      2.00000
     10       0.0113      0.00000
     11       0.0397      0.00000
     12       0.2509      0.00000
     13       0.4299      0.00000
     14       3.0493      0.00000
     15       3.2233      0.00000
     16       3.9198      0.00000

 k-point     4 :       0.1500    0.0000   -0.0000
  band No.  band energies     occupation 
      1     -16.3525      2.00000
      2     -15.2972      2.00000
      3      -7.8410      2.00000
      4      -5.8282      2.00000
      5      -5.3442      2.00000
      6      -4.8628      2.00000
      7      -4.5403      2.00000
      8      -3.6443      2.00000
      9      -2.8398      2.00000
     10      -0.2295      0.00000
     11      -0.0336      0.00000
     12       0.0867      0.00000
     13       0.6718      0.00000
     14       3.3009      0.00000
     15       3.4610      0.00000
     16       4.1811      0.00000

 k-point     5 :       0.2000    0.0000    0.0000
  band No.  band energies     occupation 
      1     -16.1306      2.00000
      2     -15.1921      2.00000
      3      -7.6579      2.00000
      4      -6.1539      2.00000
      5      -5.7398      2.00000
      6      -4.8012      2.00000
      7      -4.6298      2.00000
      8      -3.7332      2.00000
      9      -3.0639      2.00000
     10      -0.3996      0.00000
     11      -0.0894      0.00000
     12       0.0695      0.00000
     13       0.9301      0.00000
     14       3.6175      0.00000
     15       3.7837      0.00000
     16       4.5109      0.00000

 k-point     6 :       0.2500    0.0000   -0.0000
  band No.  band energies     occupation 
      1     -15.8689      2.00000
      2     -15.0693      2.00000
      3      -7.5677      2.00000
      4      -6.3899      2.00000
      5      -6.1360      2.00000
      6      -5.0583      2.00000
      7      -4.3673      2.00000
      8      -3.9073      2.00000
      9      -3.3269      2.00000
     10      -0.4363      0.00000
     11      -0.2457      0.00000
     12       0.3037      0.00000
     13       1.1676      0.00000
     14       3.9894      0.00000
     15       4.1794      0.00000
     16       4.9118      0.00000

 k-point     7 :       0.3000    0.0000    0.0000
  band No.  band energies     occupation 
      1     -15.5871      2.00000
      2     -14.9390      2.00000
      3      -7.6651      2.00000
      4      -6.5179      2.00000
      5      -6.4742      2.00000
      6      -5.2899      2.00000
      7      -4.1035      2.00000
      8      -4.0966      2.00000
      9      -3.5233      2.00000
     10      -0.3664      0.00000
     11      -0.3585      0.00000
     12       0.6027      0.00000
     13       1.3626      0.00000
     14       4.3896      0.00000
     15       4.6213      0.00000
     16       5.3707      0.00000

 k-point     8 :       0.3500    0.0000   -0.0000
  band No.  band energies     occupation 
      1     -15.3112      2.00000
      2     -14.8138      2.00000
      3      -7.8871      2.00000
      4      -6.8611      2.00000
      5      -6.5022      2.00000
      6      -5.4817      2.00000
      7      -4.2569      2.00000
      8      -3.8688      2.00000
      9      -3.5623      2.00000
     10      -0.4162      0.00000
     11      -0.2336      0.00000
     12       0.8966      0.00000
     13       1.5078      0.00000
     14       4.6881      0.00000
     15       5.0353      0.00000
     16       5.1734      0.00000

 k-point     9 :       0.4000    0.0000    0.0000
  band No.  band energies     occupation 
      1     -15.0739      2.00000
      2     -14.7085      2.00000
      3      -8.1160      2.00000
      4      -7.1361      2.00000
      5      -6.5623      2.00000
      6      -5.6243      2.00000
      7      -4.3715      2.00000
      8      -3.6890      2.00000
      9      -3.4521      2.00000
     10      -0.4252      0.00000
     11      -0.0781      0.00000
     12       1.1302      0.00000
     13       1.6049      0.00000
     14       4.2736      0.00000
     15       5.2636      0.00000
     16       5.2951      0.00000

 k-point    10 :       0.4500    0.0000    0.0000
  band No.  band energies     occupation 
      1     -14.9110      2.00000
      2     -14.6377      2.00000
      3      -8.2804      2.00000
      4      -7.3145      2.00000
      5      -6.6312      2.00000
      6      -5.7120      2.00000
      7      -4.4385      2.00000
      8      -3.5788      2.00000
      9      -3.3024      2.00000
     10      -0.4098      0.00000
     11       0.0563      0.00000
     12       1.2732      0.00000
     13       1.6597      0.00000
     14       3.7804      0.00000
     15       5.3404      0.00000
     16       5.5676      0.00000

 k-point    11 :       0.5000    0.0000   -0.0000
  band No.  band energies     occupation 
      1     -14.8526      2.00000
      2     -14.6127      2.00000
      3      -8.3400      2.00000
      4      -7.3764      2.00000
      5      -6.6605      2.00000
      6      -5.7415      2.00000
      7      -4.4603      2.00000
      8      -3.5420      2.00000
      9      -3.2353      2.00000
     10      -0.4002      0.00000
     11       0.1125      0.00000
     12       1.3200      0.00000
     13       1.6772      0.00000
     14       3.5876      0.00000
     15       5.3695      0.00000
     16       5.6852      0.00000

 k-point    12 :       0.0000    0.0500    0.0000
  band No.  band energies     occupation 
      1     -16.6248      2.00000
      2     -15.4270      2.00000
      3      -8.1382      2.00000
      4      -5.2822      2.00000
      5      -5.1588      2.00000
      6      -4.5898      2.00000
      7      -4.1402      2.00000
      8      -3.8859      2.00000
      9      -2.6414      2.00000
     10       0.1274      0.00000
     11       0.2535      0.00000
     12       0.3003      0.00000
     13       0.3686      0.00000
     14       2.8719      0.00000
     15       3.0775      0.00000
     16       3.7223      0.00000

 k-point    13 :       0.0500    0.0500   -0.0000
  band No.  band energies     occupation 
      1     -16.5549      2.00000
      2     -15.3936      2.00000
      3      -8.0568      2.00000
      4      -5.4382      2.00000
      5      -5.0827      2.00000
      6      -4.8497      2.00000
      7      -4.2714      2.00000
      8      -3.7236      2.00000
      9      -2.6806      2.00000
     10       0.0317      0.00000
     11       0.1186      0.00000
     12       0.2849      0.00000
     13       0.3815      0.00000
     14       2.9942      0.00000
     15       3.1751      0.00000
     16       3.8608      0.00000

 k-point    14 :       0.1000    0.0500   -0.0000
  band No.  band energies     occupation 
      1     -16.4187      2.00000
      2     -15.3286      2.00000
      3      -7.9069      2.00000
      4      -5.7084      2.00000
      5      -5.1847      2.00000
      6      -4.9377      2.00000
      7      -4.5101      2.00000
      8      -3.6008      2.00000
      9      -2.7800      2.00000
     10      -0.1390      0.00000
     11      -0.0660      0.00000
     12       0.1395      0.00000
     13       0.6053      0.00000
     14       3.2063      0.00000
     15       3.3670      0.00000
     16       4.0834      0.00000

 k-point    15 :       0.1500    0.0500   -0.0000
  band No.  band energies     occupation 
      1     -16.2236      2.00000
      2     -15.2359      2.00000
      3      -7.7221      2.00000
      4      -6.0258      2.00000
      5      -5.5481      2.00000
      6      -4.7933      2.00000
      7      -4.7382      2.00000
      8      -3.6046      2.00000
      9      -2.9627      2.00000
     10      -0.3579      0.00000
     11      -0.0529      0.00000
     12      -0.0257      0.00000
     13       0.8686      0.00000
     14       3.4905      0.00000
     15       3.6479      0.00000
     16       4.3772      0.00000

 k-point    16 :       0.2000    0.0500    0.0000
  band No.  band energies     occupation 
      1     -15.9815      2.00000
      2     -15.1216      2.00000
      3      -7.5753      2.00000
      4      -6.3025      2.00000
      5      -5.9327      2.00000
      6      -5.0676      2.00000
      7      -4.5083      2.00000
      8      -3.7300      2.00000
      9      -3.2096      2.00000
     10      -0.4737      0.00000
     11      -0.1678      0.00000
     12       0.1062      0.00000
     13       1.1247      0.00000
     14       3.8383      0.00000
     15       4.0089      0.00000
     16       4.7446      0.00000

 k-point    17 :       0.2500    0.0500   -0.0000
  band No.  band energies     occupation 
      1     -15.7089      2.00000
      2     -14.9944      2.00000
      3      -7.5799      2.00000
      4      -6.4429      2.00000
      5      -6.3264      2.00000
      6      -5.3009      2.00000
      7      -4.2848      2.00000
      8      -3.9194      2.00000
      9      -3.4301      2.00000
     10      -0.4955      0.00000
     11      -0.2468      0.00000
     12       0.3699      0.00000
     13       1.3417      0.00000
     14       4.2337      0.00000
     15       4.4332      0.00000
     16       5.1834      0.00000

 k-point    18 :       0.3000    0.0500    0.0000
  band No.  band energies     occupation 
      1     -15.4288      2.00000
      2     -14.8656      2.00000
      3      -7.7535      2.00000
      4      -6.7021      2.00000
      5      -6.4706      2.00000
      6      -5.4831      2.00000
      7      -4.1137      2.00000
      8      -4.1086      2.00000
      9      -3.5041      2.00000
     10      -0.4727      0.00000
     11      -0.2321      0.00000
     12       0.6720      0.00000
     13       1.5006      0.00000
     14       4.6271      0.00000
     15       4.8821      0.00000
     16       5.4678      0.00000

 k-point    19 :       0.3500    0.0500   -0.0000
  band No.  band energies     occupation 
      1     -15.1702      2.00000
      2     -14.7490      2.00000
      3      -7.9828      2.00000
      4      -7.0251      2.00000
      5      -6.5101      2.00000
      6      -5.6154      2.00000
      7      -4.2761      2.00000
      8      -3.9722      2.00000
      9      -3.4134      2.00000
     10      -0.4378      0.00000
     11      -0.1329      0.00000
     12       0.9565      0.00000
     13       1.5912      0.00000
     14       4.5966      0.00000
     15       5.2358      0.00000
     16       5.2564      0.00000

 k-point    20 :       0.4000    0.0500    0.0000
  band No.  band energies     occupation 
      1     -14.9678      2.00000
      2     -14.6597      2.00000
      3      -8.1782      2.00000
      4      -7.2623      2.00000
      5      -6.5836      2.00000
      6      -5.7015      2.00000
      7      -4.3890      2.00000
      8      -3.8532      2.00000
      9      -3.2598      2.00000
     10      -0.4057      0.00000
     11       0.0045      0.00000
     12       1.1879      0.00000
     13       1.6116      0.00000
     14       4.0442      0.00000
     15       5.4521      0.00000
     16       5.5379      0.00000

 k-point    21 :       0.4500    0.0500    0.0000
  band No.  band energies     occupation 
      1     -14.8556      2.00000
      2     -14.6110      2.00000
      3      -8.2890      2.00000
      4      -7.3879      2.00000
      5      -6.6398      2.00000
      6      -5.7439      2.00000
      7      -4.4463      2.00000
      8      -3.7828      2.00000
      9      -3.1455      2.00000
     10      -0.3893      0.00000
     11       0.1108      0.00000
     12       1.3393      0.00000
     13       1.5821      0.00000
     14       3.6815      0.00000
     15       5.5467      0.00000
     16       5.7698      0.00000

 k-point    22 :       0.0000    0.1000    0.0000
  band No.  band energies     occupation 
      1     -16.5204      2.00000
      2     -15.3771      2.00000
      3      -8.0178      2.00000
      4      -5.5117      2.00000
      5      -5.0441      2.00000
      6      -4.9568      2.00000
      7      -4.3069      2.00000
      8      -3.6974      2.00000
      9      -2.7033      2.00000
     10       0.0110      0.00000
     11       0.0398      0.00000
     12       0.2508      0.00000
     13       0.4302      0.00000
     14       3.0493      0.00000
     15       3.2233      0.00000
     16       3.9198      0.00000

 k-point    23 :       0.0500    0.1000    0.0000
  band No.  band energies     occupation 
      1     -16.4187      2.00000
      2     -15.3286      2.00000
      3      -7.9069      2.00000
      4      -5.7084      2.00000
      5      -5.1846      2.00000
      6      -4.9377      2.00000
      7      -4.5102      2.00000
      8      -3.6008      2.00000
      9      -2.7800      2.00000
     10      -0.1390      0.00000
     11      -0.0661      0.00000
     12       0.1394      0.00000
     13       0.6054      0.00000
     14       3.2063      0.00000
     15       3.3670      0.00000
     16       4.0834      0.00000

 k-point    24 :       0.1000    0.1000   -0.0000
  band No.  band energies     occupation 
      1     -16.2552      2.00000
      2     -15.2508      2.00000
      3      -7.7456      2.00000
      4      -5.9751      2.00000
      5      -5.4483      2.00000
      6      -4.8522      2.00000
      7      -4.7811      2.00000
      8      -3.5206      2.00000
      9      -2.9272      2.00000
     10      -0.3397      0.00000
     11      -0.1257      0.00000
     12      -0.0088      0.00000
     13       0.8665      0.00000
     14       3.4499      0.00000
     15       3.6026      0.00000
     16       4.3346      0.00000

 k-point    25 :       0.1500    0.1000    0.0000
  band No.  band energies     occupation 
      1     -16.0395      2.00000
      2     -15.1485      2.00000
      3      -7.5844      2.00000
      4      -6.2374      2.00000
      5      -5.7497      2.00000
      6      -5.2083      2.00000
      7      -4.6044      2.00000
      8      -3.5444      2.00000
      9      -3.1390      2.00000
     10      -0.5046      0.00000
     11      -0.1262      0.00000
     12      -0.0755      0.00000
     13       1.1417      0.00000
     14       3.7679      0.00000
     15       3.9236      0.00000
     16       4.6668      0.00000

 k-point    26 :       0.2000    0.1000    0.0000
  band No.  band energies     occupation 
      1     -15.7855      2.00000
      2     -15.0288      2.00000
      3      -7.5201      2.00000
      4      -6.3991      2.00000
      5      -6.1227      2.00000
      6      -5.4706      2.00000
      7      -4.4577      2.00000
      8      -3.6787      2.00000
      9      -3.3477      2.00000
     10      -0.5939      0.00000
     11      -0.1774      0.00000
     12       0.1026      0.00000
     13       1.3825      0.00000
     14       4.1478      0.00000
     15       4.3185      0.00000
     16       5.0768      0.00000

 k-point    27 :       0.2500    0.1000    0.0000
  band No.  band energies     occupation 
      1     -15.5128      2.00000
      2     -14.9015      2.00000
      3      -7.6220      2.00000
      4      -6.5340      2.00000
      5      -6.4247      2.00000
      6      -5.6256      2.00000
      7      -4.3908      2.00000
      8      -3.8786      2.00000
      9      -3.4376      2.00000
     10      -0.5868      0.00000
     11      -0.1710      0.00000
     12       0.3650      0.00000
     13       1.5602      0.00000
     14       4.5628      0.00000
     15       4.7661      0.00000
     16       5.5586      0.00000

 k-point    28 :       0.3000    0.1000   -0.0000
[...]
     10      -0.4098      0.00000
     11       0.0563      0.00000
     12       1.2729      0.00000
     13       1.6597      0.00000
     14       3.7803      0.00000
     15       5.3404      0.00000
     16       5.5676      0.00000

 k-point    97 :       0.0500    0.4500   -0.0000
  band No.  band energies     occupation 
      1     -14.8556      2.00000
      2     -14.6109      2.00000
      3      -8.2890      2.00000
      4      -7.3880      2.00000
      5      -6.6399      2.00000
      6      -5.7440      2.00000
      7      -4.4462      2.00000
      8      -3.7828      2.00000
      9      -3.1454      2.00000
     10      -0.3892      0.00000
     11       0.1108      0.00000
     12       1.3390      0.00000
     13       1.5822      0.00000
     14       3.6814      0.00000
     15       5.5467      0.00000
     16       5.7698      0.00000

 k-point    98 :       0.1000    0.4500    0.0000
  band No.  band energies     occupation 
      1     -14.8078      2.00000
      2     -14.5817      2.00000
      3      -8.1958      2.00000
      4      -7.4844      2.00000
      5      -6.6124      2.00000
      6      -5.7574      2.00000
      7      -4.4457      2.00000
      8      -4.2187      2.00000
      9      -3.0191      2.00000
     10      -0.3867      0.00000
     11       0.1927      0.00000
     12       1.2689      0.00000
     13       1.5419      0.00000
     14       3.7509      0.00000
     15       6.0719      0.00000
     16       6.1381      0.00000

 k-point    99 :       0.1500    0.4500   -0.0000
  band No.  band energies     occupation 
      1     -14.7712      2.00000
      2     -14.5538      2.00000
      3      -8.0137      2.00000
      4      -7.5888      2.00000
      5      -6.5503      2.00000
      6      -5.7443      2.00000
      7      -4.7548      2.00000
      8      -4.4473      2.00000
      9      -2.9553      2.00000
     10      -0.4473      0.00000
     11       0.3121      0.00000
     12       0.9536      0.00000
     13       1.7442      0.00000
     14       3.9684      0.00000
     15       6.4717      0.00000
     16       6.4733      0.00000

 k-point   100 :       0.2000    0.4500   -0.0000
  band No.  band energies     occupation 
      1     -14.7472      2.00000
      2     -14.5317      2.00000
      3      -7.7886      2.00000
      4      -7.6768      2.00000
      5      -6.4454      2.00000
      6      -5.7209      2.00000
      7      -5.3026      2.00000
      8      -4.4472      2.00000
      9      -2.9253      2.00000
     10      -0.5361      0.00000
     11       0.4229      0.00000
     12       0.6773      0.00000
     13       1.9488      0.00000
     14       4.2981      0.00000
     15       6.2058      0.00000
     16       6.5127      0.00000

 k-point   101 :       0.2500    0.4500   -0.0000
  band No.  band energies     occupation 
      1     -14.7354      2.00000
      2     -14.5194      2.00000
      3      -7.7269      2.00000
      4      -7.6179      2.00000
      5      -6.2833      2.00000
      6      -5.7499      2.00000
      7      -5.7048      2.00000
      8      -4.4451      2.00000
      9      -2.9130      2.00000
     10      -0.5973      0.00000
     11       0.4857      0.00000
     12       0.5205      0.00000
     13       2.0747      0.00000
     14       4.6429      0.00000
     15       5.7402      0.00000
     16       6.5258      0.00000

 k-point   102 :      -0.4000    0.4500   -0.0000
  band No.  band energies     occupation 
      1     -14.9679      2.00000
      2     -14.6596      2.00000
      3      -8.1782      2.00000
      4      -7.2623      2.00000
      5      -6.5837      2.00000
      6      -5.7016      2.00000
      7      -4.3889      2.00000
      8      -3.8532      2.00000
      9      -3.2597      2.00000
     10      -0.4056      0.00000
     11       0.0045      0.00000
     12       1.1878      0.00000
     13       1.6115      0.00000
     14       4.0441      0.00000
     15       5.4522      0.00000
     16       5.5379      0.00000

 k-point   103 :      -0.3500    0.4500    0.0000
  band No.  band energies     occupation 
      1     -15.0190      2.00000
      2     -14.6757      2.00000
      3      -8.0104      2.00000
      4      -7.2207      2.00000
      5      -6.4959      2.00000
      6      -5.7454      2.00000
      7      -4.3058      2.00000
      8      -4.2758      2.00000
      9      -3.2305      2.00000
     10      -0.4029      0.00000
     11      -0.0298      0.00000
     12       0.9275      0.00000
     13       1.6674      0.00000
     14       4.4248      0.00000
     15       5.6040      0.00000
     16       5.6198      0.00000

 k-point   104 :      -0.3000    0.4500   -0.0000
  band No.  band energies     occupation 
      1     -15.0576      2.00000
      2     -14.6860      2.00000
      3      -7.8292      2.00000
      4      -7.1847      2.00000
      5      -6.3703      2.00000
      6      -5.8230      2.00000
      7      -4.7664      2.00000
      8      -4.1333      2.00000
      9      -3.2438      2.00000
     10      -0.4222      0.00000
     11      -0.0351      0.00000
     12       0.6220      0.00000
     13       1.7881      0.00000
     14       4.8289      0.00000
     15       5.6420      0.00000
     16       5.6694      0.00000

 k-point   105 :      -0.2500    0.4500   -0.0000
  band No.  band energies     occupation 
      1     -15.0783      2.00000
      2     -14.6910      2.00000
      3      -7.7080      2.00000
      4      -7.1612      2.00000
      5      -6.2447      2.00000
      6      -5.8818      2.00000
      7      -5.0947      2.00000
      8      -4.0337      2.00000
      9      -3.2623      2.00000
     10      -0.4424      0.00000
     11      -0.0294      0.00000
     12       0.4302      0.00000
     13       1.8717      0.00000
     14       5.1139      0.00000
     15       5.6240      0.00000
     16       5.7120      0.00000

 k-point   106 :       0.0000    0.5000   -0.0000
  band No.  band energies     occupation 
      1     -14.8526      2.00000
      2     -14.6126      2.00000
      3      -8.3400      2.00000
      4      -7.3765      2.00000
      5      -6.6606      2.00000
      6      -5.7416      2.00000
      7      -4.4602      2.00000
      8      -3.5421      2.00000
      9      -3.2351      2.00000
     10      -0.4001      0.00000
     11       0.1125      0.00000
     12       1.3198      0.00000
     13       1.6773      0.00000
     14       3.5875      0.00000
     15       5.3695      0.00000
     16       5.6852      0.00000

 k-point   107 :       0.0500    0.5000   -0.0000
  band No.  band energies     occupation 
      1     -14.8556      2.00000
      2     -14.6109      2.00000
      3      -8.2890      2.00000
      4      -7.3880      2.00000
      5      -6.6399      2.00000
      6      -5.7440      2.00000
      7      -4.4462      2.00000
      8      -3.7828      2.00000
      9      -3.1454      2.00000
     10      -0.3892      0.00000
     11       0.1108      0.00000
     12       1.3391      0.00000
     13       1.5821      0.00000
     14       3.6814      0.00000
     15       5.5467      0.00000
     16       5.7697      0.00000

 k-point   108 :       0.1000    0.5000   -0.0000
  band No.  band energies     occupation 
      1     -14.8634      2.00000
      2     -14.6063      2.00000
      3      -8.1467      2.00000
      4      -7.4167      2.00000
      5      -6.5773      2.00000
      6      -5.7561      2.00000
      7      -4.4011      2.00000
      8      -4.2435      2.00000
      9      -3.0833      2.00000
     10      -0.3811      0.00000
     11       0.1177      0.00000
     12       1.1545      0.00000
     13       1.6041      0.00000
     14       3.9408      0.00000
     15       5.9168      0.00000
     16       5.9611      0.00000

 k-point   109 :       0.1500    0.5000   -0.0000
  band No.  band energies     occupation 
      1     -14.8729      2.00000
      2     -14.6005      2.00000
      3      -7.9492      2.00000
      4      -7.4499      2.00000
      5      -6.4689      2.00000
      6      -5.7812      2.00000
      7      -4.7698      2.00000
      8      -4.3298      2.00000
      9      -3.0801      2.00000
     10      -0.4006      0.00000
     11       0.1425      0.00000
     12       0.8280      0.00000
     13       1.7764      0.00000
     14       4.3125      0.00000
     15       6.0816      0.00000
     16       6.0839      0.00000

 k-point   110 :       0.2000    0.5000    0.0000
  band No.  band energies     occupation 
      1     -14.8805      2.00000
      2     -14.5959      2.00000
      3      -7.7665      2.00000
      4      -7.4750      2.00000
      5      -6.3108      2.00000
      6      -5.8079      2.00000
      7      -5.2544      2.00000
      8      -4.2603      2.00000
      9      -3.0978      2.00000
     10      -0.4307      0.00000
     11       0.1694      0.00000
     12       0.5772      0.00000
     13       1.9258      0.00000
     14       4.7190      0.00000
     15       5.9834      0.00000
     16       6.0953      0.00000

 k-point   111 :       0.2500    0.5000    0.0000
  band No.  band energies     occupation 
      1     -14.8834      2.00000
      2     -14.5941      2.00000
      3      -7.6900      2.00000
      4      -7.4842      2.00000
      5      -6.1922      2.00000
      6      -5.8194      2.00000
      7      -5.4990      2.00000
      8      -4.2310      2.00000
      9      -3.1072      2.00000
     10      -0.4441      0.00000
     11       0.1804      0.00000
     12       0.4845      0.00000
     13       1.9835      0.00000
     14       4.9527      0.00000
     15       5.8313      0.00000
     16       6.0919      0.00000


--------------------------------------------------------------------------------------------------------


 soft charge-density along one line, spin component           1
         0         1         2         3         4         5         6         7         8         9
 total charge-density along one line
 
 pseudopotential strength for first ion, spin component:           1
 -9.760   0.000  -0.000   0.000  -0.000  -9.946   0.000  -0.000
  0.000  -9.753   0.000   0.000   0.000   0.000  -9.939   0.000
 -0.000   0.000  -9.747   0.000  -0.000  -0.000   0.000  -9.933
  0.000   0.000   0.000  -9.753   0.000   0.000   0.000   0.000
 -0.000   0.000  -0.000   0.000  -9.760  -0.000   0.000  -0.000
 -9.946   0.000  -0.000   0.000  -0.000 -10.122   0.000  -0.000
  0.000  -9.939   0.000   0.000   0.000   0.000 -10.115   0.000
 -0.000   0.000  -9.933   0.000  -0.000  -0.000   0.000 -10.109
  0.000   0.000   0.000  -9.939   0.000   0.000   0.000   0.000
 -0.000   0.000  -0.000   0.000  -9.946  -0.000   0.000  -0.000
 -0.000  -0.000  -0.004  -0.000   0.000  -0.000  -0.000  -0.005
 -0.000  -0.000  -0.009  -0.000   0.000  -0.000  -0.000  -0.009
 -0.000  -0.000  -0.000  -0.000   0.004  -0.000  -0.000  -0.000
 -0.000   0.000  -0.000   0.000  -0.000  -0.000   0.000  -0.000
  0.004  -0.000   0.000  -0.000  -0.000   0.004  -0.000   0.000
  0.000  -0.000  -0.000  -0.000   0.005   0.000  -0.000  -0.000
 -0.000   0.000  -0.000   0.000  -0.000  -0.000   0.000  -0.000
  0.005  -0.000  -0.000  -0.000   0.000   0.005  -0.000  -0.000
 total augmentation occupancy for first ion, spin component:           1
  1.000   0.000   0.000   0.000   0.000   0.000   0.000   0.000   0.000   0.000   0.000   0.000   0.000   0.000   0.000   0.000
  0.000   1.000   0.000   0.000   0.000   0.000   0.000   0.000   0.000   0.000   0.000   0.000   0.000   0.000   0.000   0.000
  0.000   0.000   1.000   0.000   0.000   0.000   0.000   0.000   0.000   0.000   0.000   0.000   0.000   0.000   0.000   0.000
  0.000   0.000   0.000   1.000   0.000   0.000   0.000   0.000   0.000   0.000   0.000   0.000   0.000   0.000   0.000   0.000
  0.000   0.000   0.000   0.000   1.000   0.000   0.000   0.000   0.000   0.000   0.000   0.000   0.000   0.000   0.000   0.000
  0.000   0.000   0.000   0.000   0.000   0.000   0.000   0.000   0.000   0.000   0.000   0.000   0.000   0.000   0.000   0.000
  0.000   0.000   0.000   0.000   0.000   0.000   0.000   0.000   0.000   0.000   0.000   0.000   0.000   0.000   0.000   0.000
  0.000   0.000   0.000   0.000   0.000   0.000   0.000   0.000   0.000   0.000   0.000   0.000   0.000   0.000   0.000   0.000
  0.000   0.000   0.000   0.000   0.000   0.000   0.000   0.000   0.000   0.000   0.000   0.000   0.000   0.000   0.000   0.000
  0.000   0.000   0.000   0.000   0.000   0.000   0.000   0.000   0.000   0.000   0.000   0.000   0.000   0.000   0.000   0.000
  0.000   0.000   0.000   0.000   0.000   0.000   0.000   0.000   0.000   0.000   1.000   0.000   0.000   0.000   0.000   0.000
  0.000   0.000   0.000   0.000   0.000   0.000   0.000   0.000   0.000   0.000   0.000   0.000   0.000   0.000   0.000   0.000
  0.000   0.000   0.000   0.000   0.000   0.000   0.000   0.000   0.000   0.000   0.000   0.000   0.000   0.000   0.000   0.000
  0.000   0.000   0.000   0.000   0.000   0.000   0.000   0.000   0.000   0.000   0.000   0.000   0.000   0.000   0.000   0.000
  0.000   0.000   0.000   0.000   0.000   0.000   0.000   0.000   0.000   0.000   0.000   0.000   0.000   0.000   0.000   0.000
  0.000   0.000   0.000   0.000   0.000   0.000   0.000   0.000   0.000   0.000   0.000   0.000   0.000   0.000   0.000   0.000
  0.000   0.000   0.000   0.000   0.000   0.000   0.000   0.000   0.000   0.000   0.000   0.000   0.000   0.000   0.000   0.000
  0.000   0.000   0.000   0.000   0.000   0.000   0.000   0.000   0.000   0.000   0.000   0.000   0.000   0.000   0.000   0.000


------------------------ aborting loop because EDIFF is reached ----------------------------------------


 


 total charge     
 
# of ion       s       p       d       tot
------------------------------------------
    1        0.416   0.598   4.389   5.403
    2        1.364   2.332   0.000   3.696
    3        1.364   2.332   0.000   3.696
--------------------------------------------------
tot          3.144   5.262   4.389  12.794
 
    CHARGE:  cpu time    0.0482: real time    0.0526
    FORLOC:  cpu time    0.0006: real time    0.0015
    FORNL :  cpu time    0.1034: real time    0.1080
    STRESS:  cpu time    0.5332: real time    0.5351
    FORCOR:  cpu time    0.0098: real time    0.0111
    FORHAR:  cpu time    0.0028: real time    0.0042
    OFIELD:  cpu time    0.0001: real time    0.0003

  FORCE on cell =-STRESS in cart. coord.  units (eV):
  Direction    XX          YY          ZZ          XY          YZ          ZX
  --------------------------------------------------------------------------------------
  Alpha Z    16.67021    16.67021    16.67021
  Ewald    3104.00592  3103.99999 -3671.98698     0.00480    -0.00007    -0.00001
  Hartree  3211.40839  3211.40728 -3173.42818     0.00098     0.00001     0.00000
  E(xc)     -70.36938   -70.36930   -70.98241    -0.00006    -0.00000    -0.00000
  Local   -6600.31614 -6600.30985  6554.52762    -0.00546    -0.00006    -0.00002
  n-local   127.05416   126.18960   131.87013    -0.24906     0.00005    -0.00006
  augment   -25.57034   -25.57024   -26.67428     0.00006    -0.00000    -0.00000
  Kinetic   240.82348   234.25752   239.97508    -1.89609     0.00001    -0.00000
  Fock        0.00000     0.00000     0.00000     0.00000     0.00000     0.00000
  -------------------------------------------------------------------------------------
  Total      -0.00909    -0.00941    -0.02880     0.00028    -0.00000    -0.00000
  in kB      -0.08186    -0.08475    -0.25948     0.00250    -0.00000    -0.00000
  external pressure =       -0.14 kB  Pullay stress =        0.00 kB


 VOLUME and BASIS-vectors are now :
 -----------------------------------------------------------------------------
  energy-cutoff  :      500.00
  volume of cell :      177.86
      direct lattice vectors                 reciprocal lattice vectors
     3.183059931  0.000000000  0.000000000     0.314163108  0.181382155 -0.000000139
    -1.591529965  2.756610762  0.000000000     0.000000000  0.362764310 -0.000000195
     0.000002699  0.000010908 20.269968033     0.000000000  0.000000000  0.049334069

  length of vectors
     3.183059931  3.183059931 20.269968033     0.362764310  0.362764310  0.049334069


 FORCES acting on ions
    electron-ion (+dipol)            ewald-force                    non-local-force                 convergence-correction
 -----------------------------------------------------------------------------------------------
   0.213E-02 0.122E-02 -.272E-04   -.235E-02 -.145E-02 -.480E-03   -.617E-03 -.356E-03 0.000E+00   0.130E-03 -.306E-04 0.882E-03
   -.150E-02 0.438E-04 0.540E+03   0.118E-02 0.747E-03 -.544E+03   0.356E-03 0.208E-03 0.471E+01   -.880E-04 0.640E-05 0.854E-02
   -.139E-02 0.676E-05 -.540E+03   0.117E-02 0.702E-03 0.544E+03   0.355E-03 0.203E-03 -.471E+01   -.103E-03 0.137E-04 -.679E-02
 -----------------------------------------------------------------------------------------------
   -.761E-03 0.127E-02 -.174E-01   -.355E-14 0.694E-15 -.114E-12   0.942E-04 0.544E-04 0.000E+00   -.606E-04 -.105E-04 0.263E-02
 
 
 POSITION                                       TOTAL-FORCE (eV/Angst)
 -----------------------------------------------------------------------------------
      1.59156      0.91884      3.40159        -0.000807     -0.000466      0.000000
     -0.00001      1.83768      1.83804         0.000403      0.000233      0.000292
     -0.00001      1.83769      4.96515         0.000403      0.000233     -0.000292
 -----------------------------------------------------------------------------------
    total drift:                               -0.000727      0.001311     -0.014789


--------------------------------------------------------------------------------------------------------



  FREE ENERGIE OF THE ION-ELECTRON SYSTEM (eV)
  ---------------------------------------------------
  free  energy   TOTEN  =       -21.79752653 eV

  energy  without entropy=      -21.79752653  energy(sigma->0) =      -21.79752653
 


--------------------------------------------------------------------------------------------------------


    POTLOK:  cpu time    0.0142: real time    0.0150


--------------------------------------------------------------------------------------------------------


     LOOP+:  cpu time    9.6537: real time    9.7490
    4ORBIT:  cpu time    0.0000: real time    0.0000
 


 total charge     
 
# of ion       s       p       d       tot
------------------------------------------
    1        0.416   0.598   4.389   5.403
    2        1.364   2.332   0.000   3.696
    3        1.364   2.332   0.000   3.696
--------------------------------------------------
tot          3.144   5.262   4.389  12.794
 
 BZINTS: Fermi energy: -2.617191; 18.000000 electrons
         Band energy:-136.873345;  BLOECHL correction:  0.000000

 total amount of memory used by VASP MPI-rank0    57805. kBytes
=======================================================================

   base      :      30000. kBytes
   nonl-proj :      21130. kBytes
   fftplans  :        679. kBytes
   grid      :       1151. kBytes
   one-center:         15. kBytes
   wavefun   :       4830. kBytes
 
  
  
 General timing and accounting informations for this job:
 ========================================================
  
                  Total CPU time used (sec):       13.198
                            User time (sec):       11.262
                          System time (sec):        1.936
                         Elapsed time (sec):       13.357
  
                   Maximum memory used (kb):       86296.
                   Average memory used (kb):           0.
  
                          Minor page faults:        18300
                          Major page faults:            0
                 Voluntary context switches:         1011
